124
Lattice="12.66565832686254 -0.002298327060188814 0.00834880377590093 -4.224032352002198 11.93626782835652 -0.005927311628687681 -4.2140114367360075 -5.969726805641839 10.344027844722934" Properties=species:S:1:pos:R:3:energies:R:1:forces:R:3 energy=-1103.8564872864456 free_energy=-1103.8564872864456 stress="-0.0030525744037746224 -0.00016186497269051497 0.0006725180774569667 -0.00016186497269051497 -0.003586689251559775 -0.00023721327420614543 0.0006725180774569667 -0.00023721327420614543 -0.0026518640880701426" pbc="T T T"
V        0.06564569       0.00816214       0.01300235      -9.03254088      -0.00369236       0.00172411      -0.00359934
V       -0.82374895      -1.18021186       2.07060059      -9.00197168       0.00077351      -0.00031943      -0.00035245
V       10.99343382      -2.37573484       4.14633118      -8.93137876      -0.00094941      -0.00208548       0.00353800
V       -6.73311391       8.37145388       6.19155292      -9.09692774      -0.00188266      -0.00040084      -0.00014722
V       -3.39330268      -4.74096723       8.24735053      -9.09832770      -0.00322157       0.00224972       0.00739621
V       -1.67471662       1.20226937       2.07869204      -9.20948827       0.00258175       0.00192844       0.00162907
V       -2.52195203       0.01080896       4.14250320      -8.94547820       0.00117181       0.00074939       0.00025988
V       -3.35834380      -1.18032421       6.20869854      -9.05823447       0.00041547      -0.00002000      -0.00029844
V       -2.52597590       3.59534306       2.07552712      -9.26456535      -0.00007655       0.00011995      -0.00069197
V       -3.36804047       2.39950755       4.13353761      -8.98347853       0.00172153      -0.00018279      -0.00069743
V       -4.20811285       1.20512226       6.20024624      -8.97668024       0.00131173       0.00035919      -0.00160711
V       -5.05489184       0.01069761       8.27459942      -9.23912810       0.00169779      -0.00076882      -0.00052193
V       -2.52144295       7.16857376       0.00526982      -9.04683745      -0.00462267       0.00348574       0.00026348
V       -3.37083256       5.98677014       2.07877428      -9.10733887      -0.00086159      -0.00088724      -0.00026437
V       -4.21141321       4.78713836       4.13880605      -8.92641081       0.00130037      -0.00083695       0.00009056
V       -5.05488681       3.59226692       6.19341264      -8.91775022       0.00519833       0.00098274       0.00207664
V       -5.90159951       2.41199987       8.27936291      -8.98845245       0.00018976       0.00331907       0.00115273
V       -3.40329032       9.51563731      -0.00107641      -8.76516962      -0.00015383      -0.00132600      -0.00054076
V        8.44593899       8.36542132       2.08489905      -8.91852012      -0.00069075      -0.00052374      -0.00379583
V        7.61061085       7.17542455       4.14425937      -8.93315163       0.00129319       0.00102291      -0.00183858
V       -5.89398556       5.97682697       6.21385219      -8.93822594       0.00215889      -0.00152143       0.00278252
V       -6.72408954       4.81166014       8.31264273      -8.79668808      -0.00013931      -0.00415917      -0.00236467
V        1.72656018      -1.17212992       2.03930074      -8.74866446       0.00064850      -0.00412856       0.00234053
V       -3.36727654       9.56168741       4.13264713      -8.93344219      -0.00057126      -0.00067590       0.00203754
V        0.00950184      -3.57187521       6.21398084      -8.95291344       0.00126366       0.00057280      -0.00199145
V       -0.84745101      -4.78853520       8.31951872      -8.79681536       0.00383321       0.00136398      -0.00219444
V        1.72092601       2.34733540       0.01357339      -9.03263208      -0.00281925       0.00279260      -0.00355321
V        0.85068037       1.20848929       2.13949429      -8.86627370      -0.00388433       0.00276012      -0.00259007
V        0.00857255       0.00196663       4.16296198      -8.91540043       0.00110998       0.00297342      -0.00259556
V       -0.83400192      -1.18384164       6.21147193      -8.98218475       0.00176271       0.00162790      -0.00267597
V       -1.67603488      -2.38317752       8.28286218      -9.08955155       0.00110858      -0.00089202       0.00157894
V        0.85772879       4.78097059       0.00400392      -9.27691344      -0.00292523       0.00585948      -0.00129590
V        0.01474088       3.59068108       2.07914566      -9.20940079      -0.00093237      -0.00309953       0.00160275
V       -0.83705096       2.40190952       4.15131393      -9.00123436       0.00595502      -0.00421767      -0.00603224
V       -1.67255240       1.20590518       6.20704813      -8.93201113       0.00103032       0.00063294      -0.00122026
V       -2.51056166       0.01617330       8.27834336      -9.11005526      -0.00023447       0.00392218      -0.00096870
V        0.00906550       7.19098219       0.00641219      -9.11854397       0.00095629      -0.00250931       0.00026246
V       -0.83517739       5.98156255       2.06785722      -9.08195071       0.00060223      -0.00368921       0.00039689
V       -1.67843596       4.78816954       4.13397661      -8.98347174       0.00074826      -0.00148478      -0.00075432
V       -2.51489915       3.58835751       6.19823601      -8.94220603      -0.00340403       0.00240782       0.00387086
V       -3.35418183       2.40370922       8.27091615      -8.91678451      -0.00014458       0.00541220      -0.00272789
V       -5.07247742       3.65440388      10.34701433      -8.75319350       0.00287454      -0.00317967       0.00078992
V       -1.68059001       8.37290060       2.06277087      -8.99065169      -0.00000119       0.00432944      -0.00093376
V       -2.52634884       7.17426782       4.13778192      -8.94802656      -0.00087513      -0.00161143       0.00191927
V       -3.36524826       5.98094462       6.19391907      -8.91765302       0.00078438      -0.00519216       0.00208334
V       -4.17620827       4.76307261       8.23110225      -8.74522004      -0.00015165       0.00009971      -0.00004407
V        0.79577001      -5.95828422      10.35357117      -8.75303058       0.00417470      -0.00162191       0.00084824
V        0.04460791      10.72893908       2.11625593      -8.74643824       0.00012515      -0.00005666      -0.00047993
V       -0.83477807       9.54837424       4.14692181      -8.93586791       0.00440165       0.00155095      -0.00192592
V       -1.68191566       8.36641972       6.20320215      -8.95483366       0.00003527       0.00060886      -0.00262365
V        1.69015545      -4.76339789       8.28632704      -8.98819916      -0.00306461      -0.00127335       0.00115327
V        4.26326132       2.44584201       0.00598597      -8.76517458       0.00122929       0.00055806      -0.00049823
V        3.38819340       1.17681777       2.04015887      -8.74852795       0.00420169       0.00083552       0.00247161
V        2.54472336       0.01151650       4.13379629      -8.94416406       0.00106494      -0.00076063      -0.00210266
V        1.69663843      -1.18628260       6.21689044      -8.94990556      -0.00187005      -0.00069543       0.00172076
V        0.86347832      -2.37014229       8.27342742      -8.91030878      -0.00057711       0.00040403       0.00460748
V        3.38055302       4.79774204       0.00248479      -8.97099586       0.00523159       0.00068108      -0.00002718
V        2.54549376       3.58284245       2.07156272      -9.00166197       0.00056200      -0.00063334      -0.00036015
V        1.70826976       2.40492269       4.16340988      -8.91548541      -0.00247912      -0.00203270      -0.00259957
V        0.85608099       1.20551908       6.21581447      -8.92373032      -0.00101391       0.00063801      -0.00006682
V        0.01236307       0.01545712       8.27731714      -8.94388636       0.00079712       0.00088120       0.00042821
V        2.54234522       7.17432052       0.00537490      -8.92949750       0.00175757      -0.00116033       0.00051422
V        1.69349000       5.97863525       2.06683054      -8.98335789      -0.00061077       0.00373452       0.00128987
V        0.85645603       4.78694080       4.14341381      -8.94546600      -0.00038563      -0.00130533       0.00018264
V        0.01284188       3.58859560       6.20749991      -8.93199259      -0.00033034      -0.00120998      -0.00126378
V       -0.82826677       2.39653594       8.27670664      -8.92820009      -0.00004968      -0.00004445      -0.00103357
V       -2.52882984       3.59906196      10.34634903      -8.94324958      -0.00329765       0.00232372       0.00100061
V        0.85711415       8.35867902       2.07057040      -8.93322021      -0.00015267       0.00520007       0.00364220
V        0.01042454       7.17003264       4.14073915      -8.91933726       0.00074877       0.00007905       0.00060235
V       -0.83156211       5.97856242       6.20119947      -8.97641944       0.00003825      -0.00130272      -0.00169525
V       -1.67693801       4.77478654       8.27139339      -8.91685729      -0.00514689      -0.00168911      -0.00275754
V        3.36925235      11.94096142       0.00745265      -9.11844961       0.00275495      -0.00003836       0.00030781
V        6.77491111      -1.18320966       2.07706309      -8.93329617      -0.00483038      -0.00158133       0.00371022
V        1.70599943       9.55490910       4.14363230      -8.96989118      -0.00428223       0.00303626      -0.00496919
V        4.23724526      -4.76098691       8.28209686      -9.23924673       0.00122385      -0.00132001      -0.00057028
V        6.77091395       2.39719456       0.01275248      -9.04704427      -0.00470995       0.00324547       0.00031608
V        5.91579630       1.20386364       2.06980790      -8.99065792      -0.00387076      -0.00137198      -0.00079632
V        5.08931076       0.01545271       4.15334907      -8.93596904       0.00011142      -0.00463122      -0.00183842
V        4.24955684      -1.19297141       6.23289769      -9.03660330      -0.00032983       0.00023760      -0.00120500
V        5.91854422       4.79412561       0.00411951      -8.99210361      -0.00439343      -0.00411988      -0.00024003
V        5.07411226       3.59858700       2.08396697      -8.91860807       0.00036082       0.00089446      -0.00373777
V        4.23248498       2.39772769       4.13962391      -8.93340081       0.00051249       0.00077807       0.00208370
V        3.39208878       1.21066781       6.21733656      -8.94991972       0.00000675       0.00195425       0.00171676
V        2.54307324       0.01353112       8.27851450      -8.95628019      -0.00160110       0.00108608      -0.00010879
V        5.06672860       7.17844847       0.00490671      -8.93192628       0.00010869      -0.00012459       0.00038772
V        4.22924275       5.98263031       2.07429625      -8.92508782       0.00065824       0.00076664      -0.00014150
V        3.38836673       4.78082460       4.13939467      -8.93138281       0.00161855       0.00161758       0.00347059
V        2.54616625       3.59484012       6.21239461      -8.98218612      -0.00105774      -0.00225058      -0.00275780
V        1.69762348       2.39790337       8.27779119      -8.94390061      -0.00067436      -0.00113191       0.00039080
V        4.22918226       9.55897059       0.00586427      -8.92948654       0.00164740      -0.00132559       0.00052419
V        3.38821455       8.36533882       2.06664283      -8.92540338      -0.00036775       0.00024393       0.00153651
V        2.53972325       7.16824820       4.13626448      -8.98035130       0.00004195       0.00006184       0.00050311
V        1.70153298       5.97281209       6.21018171      -9.05838106       0.00004542      -0.00037466      -0.00039522
V        0.85598566       4.77542933       8.27932850      -9.11001842      -0.00388489      -0.00112540      -0.00103273
V       10.14885512       0.00804819       0.01151498      -9.27684254      -0.00657947       0.00078517      -0.00133928
V        9.29838007      -1.17814386       2.07376833      -8.98361989      -0.00369581      -0.00071189       0.00134071
V        8.45887263      -2.37165807       4.14270881      -8.98037156       0.00000439      -0.00008713       0.00056591
V        7.60260138      -3.56327035       6.21002571      -9.25456971       0.00529357      -0.00375948       0.00408631
V        8.45280498       1.20408762       2.07537442      -9.08190694       0.00379883       0.00070207       0.00045342
V        7.61409995       0.01158553       4.14764437      -8.91946766       0.00030062      -0.00074944       0.00071149
V        8.45221881       4.78545245       0.00308195      -9.23787372      -0.00273616       0.00197336       0.00095051
V        7.60264888       3.59220498       2.08667693      -9.10737338       0.00065047       0.00119321      -0.00023414
V        6.76457265       2.40104407       4.14517546      -8.94802142       0.00133793       0.00141439       0.00199465
V        5.92201851       1.20849275       6.21000099      -8.95500495      -0.00052085      -0.00026790      -0.00257964
V        7.59945862       7.17045284       0.00458955      -8.99212285       0.00242402       0.00553149      -0.00024120
V        6.75229389       5.98744317       2.08450241      -8.93146703      -0.00111426       0.00084220       0.00011706
V        5.91834081       4.78305514       4.14376109      -8.93311834      -0.00049872      -0.00150171      -0.00184920
V        5.07964465       3.59586957       6.21529243      -8.95283916      -0.00018970      -0.00140321      -0.00205781
V        4.23124902       2.39101293       8.27431925      -8.91050287      -0.00067615       0.00035320       0.00454226
V        6.74996724       9.56116491       0.00341782      -8.97134401       0.00097893      -0.00520861      -0.00006415
V        5.91580820       8.36690585       2.07479960      -8.92506789      -0.00048993      -0.00087999      -0.00011976
V        5.08117430       7.16907673       4.12757132      -8.92627292       0.00006718      -0.00003128       0.00018374
V        4.23345630       5.96720224       6.19935096      -9.09702924      -0.00035164       0.00189264      -0.00022719
V        3.39692125       4.78861250       8.28419704      -9.08947800       0.00099824      -0.00080808       0.00143999
Cr      -0.73977748       2.33200633       0.09608162      -7.82571688      -0.00077588       0.00053600       0.00031063
Cr      -4.20028863      -2.36803656       8.27864577      -7.79737887       0.00068476      -0.00648271       0.00169489
Cr      -1.67628413       4.79398356       0.01223640      -7.81645226       0.00091043       0.00099227      -0.00020367
Cr       2.54145060       7.16261481       8.28057642      -7.79755460       0.00619095       0.00146961       0.00160388
Cr       9.29207071       2.39208186       0.02026803      -7.81650278      -0.00062582      -0.00114867      -0.00019113
Ti       5.08230309      -3.57618055       6.22133483      -8.20364488       0.00007394      -0.00097097      -0.00053620
Ti       3.39587996      -2.37972770       8.28715928      -8.20065396      -0.00181725       0.00062004       0.00103996
Ti       6.77473902      -1.18352797       6.22175360      -8.20379063       0.00098824       0.00024047      -0.00047997
Ti       5.89534917      -2.35600492       8.25196401      -8.49836593       0.00180283      -0.00126496       0.00008725
Ti       5.08450438       0.00765982       8.28759148      -8.20078940      -0.00116897       0.00151042       0.00104538
