125
Lattice="-7.525 7.525 7.525 7.525 -7.525 7.525 7.525 7.525 -7.525" Properties=species:S:1:pos:R:3:forces:R:3 stress="-0.01249391592670031 -2.840510803189471e-05 0.0002162370836662255 -2.840510803189471e-05 -0.012670263525543015 0.00010014501392479687 0.0002162370836662255 0.00010014501392479687 -0.01236926050643817" free_energy=-1105.66608828 energy=-1105.63765926 pbc="T T T"
Cr       1.50500000       1.50500000      -1.50500000      -0.05030600       0.00670100       0.02206900
Cr       0.00000000       3.01000000       3.01000000      -0.38971300      -0.14433300      -0.11941800
Cr      -1.50500000       4.51500000       4.51500000      -0.37433500      -0.50195400      -0.10703300
Cr       3.01000000       9.03000000       3.01000000       0.02113000       0.06911100      -0.04347700
Ti       6.02000000      -3.01000000       3.01000000      -0.01351400      -0.02586400       0.00226200
Ti       9.03000000       0.00000000      -0.00000000       0.26669300      -0.25924500      -0.32195300
Ti       3.01000000       6.02000000      -3.01000000      -0.01128600      -0.02904000       0.03157700
Ti       7.52500000       1.50500000       1.50500000       0.02158300       0.02618500       0.01028200
Ti      -0.00000000       6.02000000       0.00000000       0.00783200      -0.00826200      -0.06705600
Ti       6.02000000       3.01000000       3.01000000      -0.27944100       0.29889700       0.27748600
Ti       3.01000000      -3.01000000       9.03000000      -0.02458700      -0.06279600      -0.04381900
Ti      -0.00000000       6.02000000       3.01000000       0.09929700      -0.59409800      -0.53495600
Ti       0.00000000       3.01000000       6.02000000      -0.42664400      -0.05925300       0.05848100
Ti       1.50500000       4.51500000       4.51500000       0.27998700      -0.14956600      -0.22659600
Ti      -4.51500000       4.51500000       7.52500000       0.20029700       0.21782200       0.25940500
Ti       0.00000000       9.03000000       3.01000000       0.50304800       0.62468500      -0.57851600
V        0.00000000       0.00000000       0.00000000       0.18389900       0.17646700      -0.16967000
V        3.01000000       3.01000000      -3.01000000      -0.15491000      -0.21288000       0.17875100
V        4.51500000       4.51500000      -4.51500000       0.25930200      -0.25056500      -0.27509200
V        6.02000000       6.02000000      -6.02000000       0.00794900       0.02434800       0.01899800
V        1.50500000      -1.50500000       1.50500000      -0.28264000       0.27893200       0.27364700
V        3.01000000       0.00000000      -0.00000000      -0.20235700       0.16317200      -0.22169500
V        4.51500000       1.50500000      -1.50500000      -0.51633400       0.57175700       0.56702700
V        6.02000000       3.01000000      -3.01000000      -0.32280500       0.63806400       0.29236200
V        7.52500000       4.51500000      -4.51500000       0.04070000       0.00031200      -0.03478400
V        3.01000000      -3.01000000       3.01000000      -0.00100600       0.04861700      -0.01129000
V        4.51500000      -1.50500000       1.50500000      -0.03572700       0.49966900       0.02488200
V        6.02000000      -0.00000000       0.00000000      -0.35747900      -0.29689400       0.06646900
V        7.52500000       1.50500000      -1.50500000       0.26543800       0.82563800       0.24553000
V        9.03000000       3.01000000      -3.01000000       0.41005900       0.03652400       0.06954400
V        4.51500000      -4.51500000       4.51500000      -0.41852800      -0.47054500       0.09298400
V        7.52500000      -1.50500000       1.50500000      -0.01138500      -0.01421900       0.02060400
V       10.53500000       1.50500000      -1.50500000       0.28486600       0.29387500      -0.17727600
V        6.02000000      -6.02000000       6.02000000      -0.03402600       0.00381500      -0.02655000
V        7.52500000      -4.51500000       4.51500000       0.46083700      -0.44667700       0.44116600
V        9.03000000      -3.01000000       3.01000000      -0.26682200      -0.27678800      -0.25239800
V       10.53500000      -1.50500000       1.50500000       0.31151600      -0.25117100       0.29522200
V       12.04000000      -0.00000000       0.00000000       0.02453300       0.01257800      -0.03632100
V       -1.50500000       1.50500000       1.50500000       0.20658600       0.17620900       0.14778800
V        0.00000000       3.01000000      -0.00000000       0.18261200      -0.19665300      -0.19756700
V        1.50500000       4.51500000      -1.50500000      -0.04408000      -0.49065900      -0.00108300
V        4.51500000       7.52500000      -4.51500000       0.28903800       0.24902500      -0.25922200
V        0.00000000      -0.00000000       3.01000000      -0.01487400      -0.01404600       0.00769700
V        1.50500000       1.50500000       1.50500000      -0.16973200       0.14782200       0.21512700
V        3.01000000       3.01000000       0.00000000      -0.19674700      -0.17090800      -0.17972500
V        4.51500000       4.51500000      -1.50500000       0.24964600      -0.23828800       0.26983600
V        6.02000000       6.02000000      -3.01000000      -0.00305600      -0.00420900      -0.02552800
V        1.50500000      -1.50500000       4.51500000      -0.02414700       0.02009100      -0.02944300
V        3.01000000       0.00000000       3.01000000       0.01669600       0.00054800      -0.02689200
V        4.51500000       1.50500000       1.50500000      -0.32283400      -0.24951300      -0.24251300
V        6.02000000       3.01000000      -0.00000000      -0.29581700       0.25702900      -0.31129100
V        7.52500000       4.51500000      -1.50500000       0.01867500       0.02130300       0.00956300
V        3.01000000      -3.01000000       6.02000000       0.02914000       0.01467700      -0.00367200
V        4.51500000      -1.50500000       4.51500000      -0.27950600       0.27850600       0.25705300
V        6.02000000      -0.00000000       3.01000000      -0.29777600      -0.28430700       0.25921200
V        9.03000000       3.01000000       0.00000000       0.04720200       0.03045200      -0.54732000
V        4.51500000      -4.51500000       7.52500000       0.27577500      -0.29459100      -0.28140800
V        6.02000000      -3.01000000       6.02000000      -0.25046900      -0.30400800      -0.25893100
V        7.52500000      -1.50500000       4.51500000       0.29336300       0.23248500       0.29317400
V        9.03000000       0.00000000       3.01000000      -0.00116400      -0.02386600      -0.00335000
V       10.53500000       1.50500000       1.50500000       0.29724600       0.30273800       0.30252900
V       -3.01000000       3.01000000       3.01000000       0.40473800      -0.14372200       0.42778600
V       -1.50500000       4.51500000       1.50500000      -0.35649600      -0.67862100       0.14928100
V        1.50500000       7.52500000      -1.50500000       0.03441400       0.28778300       0.03344800
V        3.01000000       9.03000000      -3.01000000       0.17799800      -0.11714100      -0.18638400
V       -1.50500000       1.50500000       4.51500000      -0.04545900      -0.15637800      -0.42590400
V        1.50500000       4.51500000       1.50500000       0.40459600      -0.76122800       0.15680800
V        3.01000000       6.02000000      -0.00000000      -0.01318400      -0.01559200      -0.02261900
V        4.51500000       7.52500000      -1.50500000       0.30097300       0.28990700       0.24761100
V       -0.00000000       0.00000000       6.02000000      -0.05334600       0.03664200      -0.00973000
V        1.50500000       1.50500000       4.51500000       0.08638200      -0.09493300      -0.45241000
V        3.01000000       3.01000000       3.01000000       0.31538100      -0.25788100      -0.23615500
V        4.51500000       4.51500000       1.50500000      -0.29470100       0.25693700      -0.24667900
V        6.02000000       6.02000000       0.00000000      -0.00782900      -0.00088400       0.00454400
V        1.50500000      -1.50500000       7.52500000      -0.27623000       0.28445900      -0.26897700
V        3.01000000       0.00000000       6.02000000      -0.01589700       0.01860800       0.01806000
V        4.51500000       1.50500000       4.51500000      -0.31199500      -0.26138700       0.23748200
V        7.52500000       4.51500000       1.50500000       0.28093400       0.29063300      -0.26296100
V        4.51500000      -1.50500000       7.52500000       0.26924300       0.24373700      -0.25165400
V        6.02000000      -0.00000000       6.02000000      -0.29921900       0.26339300      -0.28620000
V        7.52500000       1.50500000       4.51500000       0.15535000      -0.40215000       0.18370500
V        9.03000000       3.01000000       3.01000000      -0.03166200       0.01690100       0.30326500
V       -4.51500000       4.51500000       4.51500000       0.10394200       0.15950300      -0.10945200
V       -3.01000000       6.02000000       3.01000000      -0.04791000      -0.43511900      -0.09395900
V       -1.50500000       7.52500000       1.50500000      -0.88420900       0.25984800      -0.61021200
V        0.00000000       9.03000000      -0.00000000      -0.10203000      -0.12703600       0.16288300
V       -3.01000000       3.01000000       6.02000000       0.65995000      -0.14375800      -0.41236100
V        1.50500000       7.52500000       1.50500000       0.93710900       0.45228300      -0.01081600
V        3.01000000       9.03000000       0.00000000       0.11039300      -0.11853800       0.07439500
V       -1.50500000       1.50500000       7.52500000      -0.26824400      -0.25469900       0.30461800
V        3.01000000       6.02000000       3.01000000       0.31896100       0.20018900      -0.32033900
V        4.51500000       7.52500000       1.50500000      -0.14925300       0.17161300       0.17838500
V        0.00000000      -0.00000000       9.03000000       0.02085000       0.02187000      -0.01483200
V        1.50500000       1.50500000       7.52500000       0.23514100      -0.25248600       0.22202500
V        3.01000000       3.01000000       6.02000000       0.29097100      -0.30430100       0.28047100
V        4.51500000       4.51500000       4.51500000      -0.32691300       0.29449000       0.24425800
V        6.02000000       6.02000000       3.01000000       0.00726000       0.03358400       0.02076300
V        1.50500000      -1.50500000      10.53500000      -0.30781200       0.27666700       0.27964600
V        3.01000000       0.00000000       9.03000000      -0.00017700      -0.00120900       0.03548800
V        4.51500000       1.50500000       7.52500000      -0.00999000      -0.00951600      -0.00776000
V        6.02000000       3.01000000       6.02000000      -0.23454200       0.03413000      -0.02085700
V        7.52500000       4.51500000       4.51500000       0.14347900       0.44817500       0.13104800
V       -6.02000000       6.02000000       6.02000000      -0.31418000       0.44230500      -0.27408900
V       -4.51500000       7.52500000       4.51500000      -0.53045700       0.16043400       0.20737000
V       -3.01000000       9.03000000       3.01000000      -0.54501400       0.54599500      -0.52617600
V       -1.50500000      10.53500000       1.50500000      -0.24178500       0.24022900      -0.21360000
V       -0.00000000      12.04000000       0.00000000      -0.09733800       0.15547000       0.12975200
V       -3.01000000       6.02000000       6.02000000      -0.12508300      -0.42439200       0.13139200
V        1.50500000      10.53500000       1.50500000       0.21095800      -0.16821300       0.39450000
V       -3.01000000       3.01000000       9.03000000      -0.16016800      -0.69215900       0.15408400
V       -1.50500000       4.51500000       7.52500000      -0.25598400       0.26786100       0.29308700
V       -0.00000000       6.02000000       6.02000000      -0.24370300      -0.71833600       0.34547300
V        1.50500000       7.52500000       4.51500000       1.14903500       0.18183200       0.38308700
V       -1.50500000       1.50500000      10.53500000       0.07223000      -0.01399900       0.02752300
V        0.00000000       3.01000000       9.03000000       0.22035400      -0.32008100      -0.25435900
V        1.50500000       4.51500000       7.52500000       0.30310000       0.24080000       0.30440800
V        3.01000000       6.02000000       6.02000000       0.57598100      -0.06231300      -0.04739000
V        4.51500000       7.52500000       4.51500000      -0.19034700       0.18444800      -0.14211800
V       -0.00000000       0.00000000      12.04000000       0.18065000       0.19847900       0.19993700
V        1.50500000       1.50500000      10.53500000      -0.02803500       0.00232000      -0.04524600
V        3.01000000       3.01000000       9.03000000      -0.00650200       0.01003400      -0.00723100
V        4.51500000       4.51500000       7.52500000      -0.00535000       0.02588500      -0.00146600
V        6.02000000       6.02000000       6.02000000       0.02971200       0.02349600      -0.01958000
W        1.50500000      10.53500000      -1.50500000      -0.30916100      -0.31650500      -0.31831300
Zr      -1.50500000       7.52500000       4.51500000      -0.39077400       0.00878100       0.43836100
