125
Lattice="-7.560079518782137 7.562060943398408 7.558757108263703 7.5519590757649055 -7.563782997213921 7.552359248763504 7.560400207638752 7.564103484514047 -7.560478948751022" Properties=species:S:1:pos:R:3:forces:R:3 energy=-1111.9619611527737 free_energy=-1111.9619611527737 stress="0.0003513499122608354 1.2681306747931696e-05 0.0005891970788468726 1.2681306747931696e-05 -0.0005914208200471763 0.00011785494086461113 0.0005891970788468726 0.00011785494086461113 0.0003453973367177329" pbc="T T T"
Cr       1.48974499       1.49116341      -1.51642651      -0.00157883       0.00108373      -0.00220228
Cr      -0.03337710       2.96209954       2.98777036      -0.00090552       0.00275514      -0.00241917
Cr      -1.57335311       4.46505775       4.50562641      -0.00195441      -0.00245236       0.00291039
Cr       3.04445923       9.07542713       3.01780674      -0.00410011       0.00043553      -0.00182962
Ti       6.05125063      -3.07327502       3.06154972       0.00059234      -0.00209165       0.00049238
Ti       9.12086244      -0.09908200      -0.12049662      -0.00332027      -0.00223229      -0.00438108
Ti       3.02069445       6.04434695      -3.01974359      -0.00386150       0.00329233      -0.00059979
Ti       7.52076952       1.47524445       1.49452036       0.00067773      -0.00225639      -0.00092134
Ti      -0.02249094       6.04199524       0.02535561      -0.00438151       0.00065765       0.00653668
Ti       5.99735444       3.12733080       3.07763686       0.00221403      -0.00202547      -0.00108973
Ti       2.97018213      -3.08398982       9.01354251      -0.00144350      -0.00486323      -0.00003111
Ti      -0.03091841       5.99687597       2.89321327      -0.00547729      -0.00151311      -0.00687297
Ti      -0.06162695       3.00745874       6.05776029      -0.00368964       0.00370852      -0.00239137
Ti       1.55867379       4.45435700       4.45136070       0.00086223      -0.00493357      -0.00111978
Ti      -4.53862668       4.54673268       7.62350274       0.00410666      -0.00082399      -0.00143097
Ti       0.01978977       9.17428871       2.88799599      -0.00028111      -0.00166328       0.00118531
V        0.01789668       0.02205542      -0.02138705       0.00215535      -0.00157256       0.00025864
V        2.99225877       2.98479206      -3.02168337       0.00135885      -0.00514821      -0.00372593
V        4.56518097       4.51220498      -4.58558230      -0.00124935      -0.00150144      -0.00375195
V        6.07682643       6.06803241      -6.06803490      -0.00056899       0.00024328      -0.00124981
V        1.43737112      -1.46024000       1.56127672      -0.00214977      -0.00022481       0.00173269
V        2.94330541       0.03495988      -0.02417082       0.00084650       0.00321048      -0.00201498
V        4.44931784       1.61229431      -1.40137329      -0.00018376       0.00227758       0.00224155
V        5.98932947       3.15238528      -3.01355162      -0.00002952      -0.00018129       0.00002996
V        7.55292249       4.56603622      -4.54222504       0.00188787      -0.00014188       0.00341726
V        3.00342166      -2.99405674       3.05029055      -0.00078716      -0.00083746       0.00263566
V        4.49643661      -1.42636716       1.56318989       0.00202449      -0.00150954       0.00320306
V        5.96422683      -0.06164089       0.03990188       0.00405854       0.00137898       0.00284767
V        7.65255133       1.75107435      -1.43553243       0.00027808      -0.00021604       0.00009510
V        9.13593285       3.09721555      -3.04920558       0.00106596       0.00004473      -0.00235819
V        4.48324010      -4.60321092       4.52416512      -0.00199329      -0.00159555      -0.00191685
V        7.53410184      -1.50474401       1.52198672      -0.00106893       0.00152202       0.00360849
V       10.65824492       1.55179834      -1.55007666      -0.00134657       0.00180869      -0.00330215
V        6.04430167      -6.05862658       6.05098797      -0.00216254       0.00252218       0.00269126
V        7.62446250      -4.62324572       4.59640503       0.00374651      -0.00112257       0.00131500
V        9.00655713      -3.05610435       3.00360624      -0.00418556       0.00258637       0.00110625
V       10.64576803      -1.50842574       1.57878800      -0.00346118       0.00368335      -0.00010871
V       12.13461247       0.01639119       0.01384576      -0.00196276      -0.00116353      -0.00009426
V       -1.44454925       1.52137526       1.51114889      -0.00013272       0.00270279       0.00129376
V        0.01826290       2.97978316      -0.03778423       0.00053742      -0.00015715       0.00007363
V        1.48727448       4.46046062      -1.52250490      -0.00023558       0.00185158      -0.00229993
V        4.57174644       7.59750221      -4.57281848      -0.00064049       0.00039287       0.00079403
V        0.00203779      -0.02619100       3.01554165       0.00378108      -0.00055495      -0.00209760
V        1.47228779       1.50387467       1.52710795      -0.00108910       0.00006220      -0.00122246
V        2.98031770       2.99945625      -0.03050865       0.00056062       0.00082266      -0.00185838
V        4.55748691       4.52046608      -1.48301453      -0.00017923      -0.00307832       0.00083670
V        6.04083907       6.05217277      -3.03879265      -0.00049613       0.00216139      -0.00059335
V        1.50013286      -1.48461804       4.53063084       0.00101643      -0.00031074       0.00050253
V        2.99221985       0.00179395       3.01965323       0.00293627       0.00221360       0.00003613
V        4.47372294       1.49188287       1.48892632       0.00154907       0.00116472       0.00212647
V        5.99291925       3.12859744       0.00611266       0.00123885       0.00157076       0.00115177
V        7.55081699       4.61118410      -1.53043225       0.00025236      -0.00052491      -0.00062004
V        3.04174384      -2.98674835       6.01773346      -0.00107514       0.00008097      -0.00114962
V        4.49748240      -1.49370949       4.56804676       0.00123269       0.00358631       0.00245386
V        5.99243352      -0.07427264       3.05901658       0.00603006       0.00072332      -0.00450124
V        9.06170817       3.02921892      -0.11156863       0.00017001      -0.00173208      -0.00297580
V        4.58870729      -4.58246456       7.49725837       0.00070091      -0.00226342      -0.00303933
V        6.04632837      -3.06928659       6.00260218       0.00186272       0.00322082       0.00094153
V        7.62396938      -1.51182871       4.58049228       0.00221498      -0.00277263       0.00185312
V        9.09914225       0.02348541       3.01330583       0.00467446       0.00349358      -0.00086972
V       10.61191055       1.53194043       1.53978241      -0.00499880       0.00113199       0.00319585
V       -2.98774241       3.02253507       3.08602208       0.00257199       0.00256036       0.00086024
V       -1.57528495       4.40453941       1.50614744      -0.00037646      -0.00148530       0.00286433
V        1.53741172       7.60592645      -1.47434571       0.00467515       0.00142960       0.00465410
V        3.06027100       9.08186313      -3.04889667      -0.00213891      -0.00106522       0.00121533
V       -1.47486571       1.44948536       4.45425764      -0.00118964       0.00476593       0.00155490
V        1.55139612       4.39065882       1.52859091      -0.00019964      -0.00446494       0.00131298
V        3.03257268       6.04199065      -0.03679669      -0.00265117       0.00398766      -0.00199336
V        4.59303015       7.58332963      -1.49366152       0.00153470       0.00136034       0.00083019
V       -0.01416440       0.00028369       6.02940346       0.00164315       0.00137210      -0.00186581
V        1.50893353       1.50408895       4.47419961       0.00099142       0.00300884      -0.00150063
V        3.08227037       2.95197165       2.99534834      -0.00208585       0.00056170       0.00010781
V        4.50329564       4.61658113       1.46598204       0.00051193      -0.00202518       0.00249075
V        6.06603287       6.06585487      -0.00256364      -0.00270177       0.00225371       0.00165555
V        1.46979132      -1.44022218       7.50962216       0.00065595       0.00117595      -0.00218692
V        2.99192387       0.01818874       6.04373606       0.00061310       0.00153275      -0.00221352
V        4.46424840       1.47540745       4.55741666      -0.00075149       0.00001024       0.00288227
V        7.57661418       4.59936547       1.49214002      -0.00078195      -0.00124379       0.00363479
V        4.55546565      -1.51245623       7.49042067       0.00171206      -0.00015919      -0.00161981
V        6.02347804       0.02735927       5.99149141       0.00238421       0.00034527      -0.00424936
V        7.57346210       1.48054573       4.54814606      -0.00296651       0.00243572       0.00006770
V        9.03541092       3.01575404       3.06656265      -0.00063376      -0.00580820      -0.00265706
V       -4.54276474       4.56104921       4.53155452       0.00387175       0.00076048       0.00169739
V       -3.02797751       5.98484944       3.06399219       0.00174103       0.00085266       0.00228655
V       -1.73812574       7.61612689       1.44244639      -0.00348867       0.00338113      -0.00155533
V       -0.02179423       9.08694952       0.00576423      -0.00321152      -0.00501989       0.00111908
V       -2.95664191       3.01705796       6.00114582       0.00084907      -0.00179537      -0.00152627
V        1.68248331       7.63064310       1.49655813       0.00260939       0.00331791      -0.00204025
V        3.05906845       9.06598032      -0.02594981      -0.00107192      -0.00246802       0.00093515
V       -1.53089585       1.44316365       7.61075317      -0.00154630      -0.00113591       0.00045301
V        3.07689072       6.06248856       2.97103359      -0.00178069       0.00113147       0.00000402
V        4.55792931       7.56054092       1.50420529      -0.00080986       0.00156483      -0.00379286
V        0.01814672      -0.00174169       9.07867817       0.00275193       0.00191181       0.00149621
V        1.51725013       1.47312663       7.60499089       0.00037527       0.00000383       0.00245062
V        3.05270733       2.95796929       6.10213557       0.00148143      -0.00298999       0.00114978
V        4.49661129       4.59437398       4.59221242      -0.00102549       0.00057571       0.00166020
V        6.07382012       6.07794012       3.02306262       0.00180084       0.00004827       0.00103662
V        1.47238506      -1.49208555      10.60491910       0.00076695      -0.00461109      -0.00180470
V        3.00869332      -0.02271238       9.08778865       0.00427012       0.00083545       0.00404769
V        4.50025757       1.52340770       7.52591521       0.00125018      -0.00066106      -0.00069331
V        6.02761455       3.03954252       6.03600778       0.00093175      -0.00352916      -0.00016114
V        7.57451467       4.62183943       4.54723044       0.00193774      -0.00067723       0.00093719
V       -6.09587635       6.09910518       6.01215953       0.00074963      -0.00049935      -0.00230360
V       -4.58936024       7.58556754       4.57244045      -0.00069144      -0.00233198       0.00038792
V       -3.12689287       9.15097444       2.99336424      -0.00084089       0.00050147       0.00135481
V       -1.56043766      10.65488320       1.43133098      -0.00469096      -0.00176939      -0.00082490
V       -0.00430170      12.13669347       0.00215337       0.00315810       0.00049341      -0.00068315
V       -3.07323335       6.00750893       6.06988052      -0.00318413      -0.00296494       0.00170546
V        1.55936531      10.59698114       1.55304637      -0.00038614      -0.00189452      -0.00003598
V       -3.06500189       2.87033563       9.14479466      -0.00107443      -0.00341270       0.00000249
V       -1.61039045       4.53553118       7.62650534      -0.00069914       0.00112360      -0.00312813
V       -0.08273314       5.78395922       6.10300909      -0.00346013      -0.00463253       0.00038391
V        1.67858034       7.59613012       4.47319352       0.00078138       0.00267172      -0.00091069
V       -1.46977697       1.48654399      10.59888225       0.00136648      -0.00206261       0.00128946
V        0.00432397       2.96422953       9.05334927      -0.00194389      -0.00080817       0.00124595
V        1.53817097       4.55274463       7.62077096       0.00327499      -0.00398838       0.00276742
V        3.17625333       6.01424249       5.99973016      -0.00070769      -0.00165820      -0.00174638
V        4.55465824       7.58432346       4.49977548       0.00007376       0.00064113      -0.00111918
V       -0.00694849       0.02831585      12.11326642      -0.00002627       0.00233970      -0.00167940
V        1.50964069       1.49524745      10.57865954       0.00142818       0.00094270       0.00163573
V        2.98339674       3.03818648       9.06619537      -0.00540273       0.00250554      -0.00189511
V        4.56363381       4.55532358       7.55411113       0.00105309      -0.00239685       0.00153058
V        6.06611680       6.07614611       6.05780879      -0.00018870       0.00031231       0.00227760
W        1.49726670      10.58699956      -1.52627397       0.00179785       0.00414208       0.00086473
Zr      -1.40678600       7.63285350       4.66351893       0.00345080       0.00577611      -0.00119087
