127
Lattice="11.736635361891226 -0.00407584549339791 0.002664485705144228 -0.004075710617396691 11.738506413263783 0.0006529362281632765 0.002664967552593105 0.0006528921137531925 11.738346641132775" Properties=species:S:1:pos:R:3:energies:R:1:forces:R:3 energy=-1143.0903336474744 free_energy=-1143.0903336474744 stress="-0.008804170778665755 0.0008308108463560163 -0.0003813772877264798 0.0008308108463560163 -0.007489080047055317 -0.0013976926045381967 -0.0003813772877264798 -0.0013976926045381967 -0.010207994107662944" pbc="T T T"
Cr       0.02477317       2.92871454       8.80015192      -7.70886540      -0.00518397       0.00574185       0.00388427
Cr       1.47907761      10.27896711      10.29293997      -7.54797583      -0.00066594      -0.03563973      -0.01517003
Cr       7.30825164       1.48549786      10.25919698      -7.43606831      -0.00612436      -0.00731065       0.01392920
Cr      10.25524466       1.46865509       4.35269965      -7.14102255      -0.00970784      -0.01248364      -0.00797586
Cr       8.82588678      -0.02340413       8.79467884      -7.46603182       0.00415334      -0.01455563       0.00185845
Cr       8.79559188       5.87459681       5.83625380      -7.14438238      -0.05783898      -0.00439592      -0.01238255
Ti       0.02542689      -0.01404901       5.87963110      -8.27553273       0.00705199      -0.01498973       0.00074017
Ti       4.40128590      10.27545960      10.25909479      -8.23979402      -0.00599114      -0.02262565       0.01259167
Ti       7.30013615       1.45486469       7.33246129      -8.31013038       0.00093950      -0.02085788      -0.00343803
Ti       7.34129374       4.37832080       7.36390222      -8.17303732      -0.02232195      -0.01679231       0.00356298
Ti       5.87242292       8.79740062       0.01152774      -8.25564770      -0.02532208      -0.03889239       0.03389650
Ti      10.27385462       1.46256051       1.45523225      -8.18857377      -0.00977178      -0.00883445       0.00454693
Ti       8.78766689       2.93419768       2.89468811      -8.19046309      -0.04956182      -0.01248226       0.00793389
Ti      10.28329041       4.36434216       4.37407161      -8.31451251      -0.00564964      -0.00391314       0.00842955
Ti       8.81078547       5.86441080       0.00295497      -8.28791123      -0.01187626      -0.00770038       0.01357650
Ti      10.28948101       7.36464066       7.38215062      -8.58202476       0.02906191      -0.01560399      -0.00088858
Ti       8.75944392       8.80608172       8.84748392      -8.50598963      -0.00299302      -0.01550908       0.00203607
V       -0.01425441       0.01084842       0.00756232      -9.18727901       0.00152748      -0.01498798      -0.00252630
V        1.47288499       1.44931157       1.47157024      -9.54799378       0.00909186      -0.00627975      -0.00056778
V        0.00548806      -0.00564003       2.95048734      -9.14522331       0.00379497      -0.01577213       0.00565300
V        1.53147180       1.51359828       4.42566495      -9.32455085       0.03518267      -0.00111107       0.00853962
V        1.53582937       1.50360406       7.29346433      -8.94986873       0.00755883       0.00748695      -0.00342720
V       -0.00115592       0.00493755       8.79097273      -9.62377133       0.00153990      -0.01261543      -0.00237066
V        1.47231127       1.45577040      10.29078680      -9.44396223       0.00179696      -0.00657196       0.00139103
V       -0.01048178       2.93076103      -0.00689464      -9.59753241       0.00026312      -0.00905500       0.00174800
V        1.46232589       4.37824578       1.46224255     -10.08098322       0.00829436      -0.01040629       0.02304893
V        0.03015378       2.92821358       2.93234482      -9.41562841       0.01136905      -0.01602327      -0.00627734
V        1.47531490       4.33568968       4.41109119      -9.56060128      -0.02071645      -0.11653833       0.02951023
V       -0.04506682       2.91730197       5.86168487      -9.08400810      -0.00076037      -0.00868302       0.02161675
V        1.45415370       4.35066489       7.34080788      -9.11989694       0.04529033       0.15151991      -0.06199198
V       -0.00519287       5.86282551       0.00016956      -9.53438887       0.00543796      -0.00488186       0.00840091
V        1.45603681       7.34035545       1.47648310      -9.49291355      -0.00034409      -0.04296624       0.04217713
V        0.00092236       5.85110503       2.92722902      -9.34777213       0.00439043      -0.01332601       0.01458903
V        1.40720478       7.34433692       4.39869299      -9.42322593       0.09092182      -0.09005620       0.07622738
V       -0.05043563       5.85166905       5.87278490      -9.26796608       0.16568739       0.00093116       0.02948592
V        1.39317188       7.39019268       7.42094754      -9.68649828       0.15067874      -0.20932109      -0.14180632
V       -0.01694239       5.84747565       8.84123492      -9.81921496       0.01381620       0.00798439      -0.01370314
V        1.45527851       7.35662374      10.29760819      -9.85897234       0.00485005      -0.01523326      -0.02710967
V       -0.01240178       8.79184254       0.01863415      -9.29599375      -0.00049439      -0.01325689       0.00166766
V        1.46256044      10.24975690       1.50112044      -9.20775555      -0.01727990      -0.01703112      -0.00852741
V        1.47705049      10.23410199       4.38214854      -9.03667869      -0.04072782      -0.03823324       0.02369011
V        0.00485407       8.83614288       5.88215550      -9.26592985       0.04037948      -0.05620281       0.03264223
V        1.46470494      10.25915117       7.37386123      -9.56511048      -0.00992382      -0.06464780       0.00794535
V        2.93912301      -0.00115544      -0.00385604      -9.11054036       0.00047298      -0.01468088       0.00389362
V        4.40230246       1.43930497       1.45020049      -9.44386695       0.01879960       0.02289634       0.04748032
V        4.36564686       1.43861215       4.40104331      -9.22153537       0.00430911       0.11175261       0.00209579
V        2.92764440      -0.06104644       5.88958650      -8.78682716       0.01847857      -0.06215693      -0.01027308
V        4.36152982       1.49758697       7.29234131      -8.80038059      -0.00273476      -0.02255407      -0.02410198
V        2.93158360       0.00711581       8.78872531      -9.16388946      -0.00019695      -0.01945006      -0.00134975
V        4.39957644       1.45347149      10.27297245      -9.15974731       0.00107620      -0.00803552       0.00874131
V        2.93504776       2.92211340      -0.01325315      -9.86201637       0.00694330       0.00109765       0.02290200
V        4.41717438       4.37582978       1.43695917     -10.23969082      -0.02014208      -0.04262296       0.10050572
V        4.41056120       4.16723551       4.37163768      -9.59850697      -0.50174268       0.55123986       0.43954203
V        4.26613432       6.83262746       4.61549638      -9.36119195       0.81725268       2.62749460      -1.04500274
V        4.37412989       4.35101407       7.33211476      -9.04981335      -0.03067657      -0.14226125       0.02052539
V        2.93272122       2.94375839       8.86644486      -9.29669222      -0.02125054      -0.00333256      -0.00542491
V        4.42568912       4.40582763      10.28995900      -9.75369176      -0.01394452       0.00432593       0.00850143
V        2.92210108       5.86096470      -0.00730468     -10.02415237       0.01085840      -0.00229619       0.05542765
V        4.40548389       7.29918609       1.45321598      -9.70503418      -0.02985107      -0.06714444       0.20531153
V        2.71895313       5.85634729       6.06341231      -9.16342094       0.86868365      -0.42201641      -0.77475274
V        2.92643603       5.86222909       8.86545000      -9.98791710      -0.03494513      -0.00604410      -0.12341761
V        4.39865077       7.33112982      10.29020410      -9.76311910      -0.02093708      -0.02387513       0.01049256
V        2.94733403       8.78174813       0.01381442      -9.21930385       0.00930204      -0.04354495       0.03136999
V        4.38761681      10.24382475       1.48722362      -9.02180788       0.00269069      -0.01379818      -0.01062240
V        2.97069853       8.70314986       2.98845850      -9.22661516      -0.08246484      -0.00872134      -0.04152410
V        4.39863427      10.24198501       4.41955119      -8.88303180      -0.00858978      -0.22472019       0.02651721
V        2.93593305       8.76778081       5.90878469      -9.51820471      -0.09772404      -0.11682483       0.08871720
V        4.39861295      10.25626767       7.35266577      -9.25094400      -0.01851620      -0.03374131       0.03030570
V        2.93852066       8.80989582       8.83063400      -9.73497939      -0.03062360      -0.04642169      -0.02457616
V        5.86209526      -0.02965801       0.00652234      -9.08444525       0.00144105      -0.00411773       0.02217394
V        7.34185609       1.45295680       1.46323121      -9.09231830      -0.02553609       0.00364570       0.02408985
V        5.87799264      -0.03595284       2.94068666      -9.02923426      -0.02635951       0.00119928       0.02371227
V        7.34977023       1.43331909       4.39783878      -9.07679974      -0.03564585       0.01710883      -0.02137256
V        5.84833296      -0.01480587       5.87259184      -8.97443598      -0.02226086      -0.04241914      -0.02106024
V        5.84222543      -0.01703407       8.79410501      -9.18754925      -0.00433691      -0.01740415      -0.00124707
V        5.86586454       2.92501598      -0.00441123      -9.37136765      -0.00932088      -0.00661038       0.05180856
V        7.34137836       4.37857866       1.45818567      -9.43382218      -0.04684870      -0.04508665       0.04802848
V        5.90013698       2.87377815       2.90077101      -9.28658800      -0.16531970       0.12357307       0.17272320
V        7.36253502       4.35677451       4.36770255      -9.09618578      -0.11678088      -0.04422842       0.01806788
V        5.93941439       2.87917057       5.88457817      -8.85523593      -0.05112541       0.00263937      -0.07849483
V        5.83409421       2.93325117       8.79749461      -9.14388527      -0.00440787      -0.01723951      -0.00931562
V        7.32467308       4.40445994      10.28007465      -9.52548935      -0.01267280      -0.01066235       0.01649348
V        7.31589215       7.32174800       1.47900971      -9.35380236      -0.00930556      -0.03262750       0.01730371
V        5.86876358       5.82150403       2.94060897      -9.63050554       0.02092977      -0.19950063       0.00041855
V        7.32874766       7.33485181       4.39675880      -9.11517195      -0.15730029      -0.04731991       0.02316751
V        5.90473677       5.78246307       5.92523668      -9.40031411      -0.34588290      -0.08545789      -0.02820207
V        7.31165179       7.33581374       7.34610217      -9.36608800      -0.04685723      -0.03650935       0.00661503
V        5.86425456       5.86562670       8.83148884      -9.72865377      -0.01749946      -0.00840722      -0.00516423
V        7.32609815       7.32874968      10.27105014      -9.47756259      -0.01608054      -0.01057440       0.01613863
V        7.31809123      10.25520094       1.48147428      -8.99407305      -0.00023996      -0.00847560       0.00479617
V        5.82514026       8.73162432       2.96693221      -9.03383338       0.03726730      -0.03920688      -0.01521559
V        7.32260174      10.23117483       4.40357609      -9.06163220       0.00671883      -0.01802496       0.00045704
V        5.81180493       8.74696427       5.85904522      -9.38624637       0.04459596      -0.02544465       0.08565804
V        7.30951834      10.25622230       7.29732688      -9.22723596       0.00155868      -0.01202330       0.01250959
V        5.86846786       8.79919986       8.82244927      -9.47141950      -0.02755809      -0.02818922      -0.00097064
V        7.30907845      10.26697143      10.30035883      -9.16350591      -0.00465142      -0.01112848       0.00916476
V        8.80411208      -0.01722076       0.00651239      -9.21527217      -0.00093456      -0.01152560      -0.00015864
V        8.79150698      -0.01738557       2.92096766      -9.06636823      -0.02138747      -0.00758263      -0.00052721
V        8.80325756      -0.00439072       5.86969790      -9.21867368      -0.00792356      -0.01234000       0.00038870
V       10.25938483       1.46967627       7.33807326      -9.30111462      -0.00073286      -0.00222017      -0.00334918
V       10.27743180       1.46759685      10.29296304      -9.38691749      -0.00490715      -0.00747316       0.00758238
V        8.80951912       2.93881757       0.00827488      -9.19357261      -0.01966371      -0.00984140       0.01823906
V       10.27400424       4.38521801       1.46641950      -9.04778191      -0.01005522      -0.01389974       0.00586036
V        8.80191150       2.90225079       5.87752817      -9.30581103      -0.02182960      -0.00018228      -0.00966070
V       10.23854899       4.39037939       7.34140477      -9.27714712       0.01155157       0.00825877       0.00268079
V        8.80331095       2.94704721       8.81342380      -9.34110555       0.00005112      -0.01238980       0.00485257
V       10.25141975       4.40577101      10.29039562      -9.40142713      -0.00013964      -0.00297973       0.00206341
V       10.28563275       7.34454789       1.48008412      -8.97354069      -0.01123520      -0.00710724       0.01029613
V        8.80273442       5.84696512       2.91261077      -9.15527744      -0.03345216      -0.01351564       0.02704429
V       10.26789797       7.36997161       4.37383876      -9.18230899       0.00641740      -0.01729583       0.01383379
V        8.79356674       5.86656295       8.83773073      -9.24427865      -0.00289735      -0.00626655       0.00461415
V       10.28687022       7.33115035      10.28887363      -9.48282150       0.01339228      -0.00654736      -0.00804102
V        8.78261824       8.79774392      -0.00077355      -9.13877898      -0.00578107      -0.01240024       0.00482600
V       10.27854254      10.26377122       1.48378578      -9.06503266      -0.01363812      -0.00572035       0.00058098
V        8.76660096       8.79239094       2.90234886      -9.01019013      -0.02789147      -0.03169665       0.01568176
V       10.24538654      10.23195751       4.38638928      -9.20825895      -0.00943127      -0.02284744       0.00519345
V       10.27154055      10.24544235       7.33094669      -9.63931165       0.00713764      -0.02294534       0.00083002
V       10.28846968      10.26840642      10.29430257      -9.67222300       0.00190039      -0.01034470       0.00196560
W        1.47348032       4.40205012      10.30206149      -6.77621721      -0.00064550       0.00750659      -0.00539889
W       -0.03558386       8.80883767       8.82561683      -6.79030887       0.03852319      -0.05785716      -0.03957871
W        2.94645802       2.89632873       2.84211600      -6.91589810       0.09196679       0.02131881       0.08321971
W        2.89898806       5.81329763       2.88678718      -7.02036981      -0.00989110      -0.11162757       0.28605350
W        4.37965116       7.33252146       7.39737075      -6.75620134      -0.05889824      -0.05019930      -0.05470479
W        5.88360711       5.86381609       0.00316656      -6.56992972      -0.03745300      -0.01043627       0.04788784
Zr      -0.00678849       8.79437302       2.94172915      -7.93066487      -0.00685438      -0.02552410       0.02510575
Zr       2.94442406      -0.02103444       2.94662908      -8.12199631       0.01170563      -0.03715538       0.01591077
Zr       8.78226515       8.81671328       5.83143370      -8.11552698      -0.02787421      -0.03711116      -0.00401624
