127
Lattice="11.736635361891226 -0.00407584549339791 0.002664485705144228 -0.004075710617396691 11.738506413263783 0.0006529362281632765 0.002664967552593105 0.0006528921137531925 11.738346641132775" Properties=species:S:1:pos:R:3:energies:R:1:forces:R:3 energy=-1143.2008796849195 free_energy=-1143.2008796849195 stress="-0.008430563598344515 0.0011498486923356554 0.00021727674354083545 0.0011498486923356554 -0.007081737104976035 -0.0010028220374932808 0.00021727674354083545 -0.0010028220374932808 -0.009784285568060193" pbc="T T T"
Cr       0.01971371       2.94105098       8.80592145      -7.68656528       0.00869369       0.03930763      -0.00321170
Cr       1.48074553      10.28947868      10.28733294      -7.54889079       0.00406490       0.00007838      -0.02700816
Cr       7.30772131       1.49084339      10.25363075      -7.43467302      -0.00440310       0.01102034       0.00010809
Cr      10.26392434       1.48986850       4.35960090      -7.16120364       0.02324954       0.03567892      -0.00217871
Cr       8.83016417      -0.01846360       8.79317665      -7.46167987       0.00794843       0.00574330      -0.00734915
Cr       8.80109177       5.88513194       5.84588654      -7.11314057       0.00252870      -0.00442632      -0.01738781
Ti       0.02612298       0.00310042       5.88184393      -8.27193271       0.00085677       0.01444544      -0.00339222
Ti       4.40050638      10.29511452      10.25473989      -8.24243593      -0.00081678       0.01843824      -0.00552715
Ti       7.30575488       1.47077520       7.32979604      -8.31617791      -0.00130040       0.02225186      -0.02489909
Ti       7.33947588       4.40297928       7.34363576      -8.22988344      -0.00828469       0.01218021      -0.01010139
Ti       5.88094006       8.82013826      -0.00189645      -8.23127220      -0.00194090       0.00428707      -0.00079185
Ti      10.28064316       1.47038431       1.45413040      -8.18237294       0.00899318       0.01106257      -0.00426558
Ti       8.79751267       2.94313101       2.89387944      -8.19753317      -0.02824186       0.00679855      -0.00065008
Ti      10.28858931       4.37711666       4.38330593      -8.34804585       0.05561978       0.00767396       0.00460757
Ti       8.82121101       5.86783357      -0.00586078      -8.28718981       0.00412569       0.00437967      -0.00292699
Ti      10.29713748       7.36906078       7.38157432      -8.57195245       0.04683856       0.00378445      -0.00887235
Ti       8.76378808       8.81069249       8.84386124      -8.51914343       0.00681096       0.00217807      -0.01067274
V       -0.01051395       0.01972078       0.00397111      -9.18860914       0.01132808       0.01067685      -0.00673372
V        1.47823811       1.46818348       1.46902468      -9.53751986       0.03627536       0.03422094       0.00837686
V        0.00797519       0.01033395       2.94685148      -9.14360842       0.00396611       0.01367528      -0.01376242
V        1.52162517       1.54107140       4.39912622      -9.52490356      -0.02675311       0.02901517      -0.07613934
V        1.53574677       1.53550549       7.30161754      -9.12732716      -0.00456170       0.05218474       0.03434738
V        0.00295474       0.01575856       8.78955148      -9.62091340       0.00396134       0.01156890      -0.00131746
V        1.47897775       1.47678275      10.27999016      -9.45777922       0.02106448       0.03036616      -0.02515117
V       -0.00156773       2.94084211      -0.01101814      -9.60499877       0.02018325       0.01303720      -0.01132071
V        1.48599545       4.40288979       1.46784422     -10.05913044       0.03329028       0.02318859       0.02407671
V        0.02611517       2.94292573       2.90806269      -9.38966168       0.05544597       0.04815884      -0.00545415
V        1.42581438       4.46477529       4.35017098      -9.67458701       0.29295015       0.09569590      -0.00217438
V        0.00662350       2.95516112       5.86475207      -9.22694331       0.14891770       0.06226762      -0.02368034
V        1.47201812       4.45652003       7.32583097      -9.37418685       0.01407475       0.19108336      -0.01403851
V        0.00379729       5.86888350      -0.00357127      -9.52684256       0.01289458       0.00958165      -0.00925335
V        1.47117531       7.35815699       1.47864217      -9.48188002       0.01060648       0.00294995       0.01934075
V       -0.00210316       5.87436339       2.90966402      -9.26848912       0.03521940       0.00918947       0.01488651
V        1.37127521       7.39382247       4.39522252      -9.22915123       0.06647872      -0.01594971       0.06748073
V       -0.02159489       5.88274097       5.88739471      -9.24310959       0.10744275       0.04445199      -0.01014398
V        1.42251876       7.40139137       7.38719540      -9.72754837       0.15110217      -0.09513008      -0.15175281
V       -0.00643255       5.85809549       8.82969242      -9.84174813       0.05248674       0.03615365      -0.05226783
V        1.45587013       7.36429678      10.28865415      -9.85636701       0.01210675       0.00630554      -0.04557190
V       -0.00990257       8.79970390       0.01386797      -9.29934519       0.00709825       0.00830430      -0.01032720
V        1.46738325      10.26474316       1.50152616      -9.20671504       0.00497407       0.01231151      -0.00268011
V        1.49169804      10.26989790       4.38301470      -9.04633063       0.02249388       0.03557821       0.01899693
V        0.00823220       8.85442080       5.88829005      -9.26330857       0.03513754      -0.00715773       0.02412462
V        1.47255181      10.28182031       7.36716534      -9.56536338       0.02152224       0.00413108      -0.01976551
V        2.93690654       0.01878293      -0.00874609      -9.11030177       0.00603474       0.02815547      -0.00922182
V        4.39698575       1.45435658       1.44186362      -9.43489482       0.03064333       0.06758956       0.04611726
V        4.39427330       1.49212544       4.37444333      -9.42878198       0.07475673       0.12447077      -0.08288653
V        2.93617378       0.02568927       5.88721662      -8.84429058       0.03145919       0.19832709      -0.00997390
V        4.38625532       1.52847658       7.30236436      -8.99560003       0.07207248       0.01366016       0.05613013
V        2.93156438       0.02746172       8.78836054      -9.16073928       0.00471549       0.02095971       0.00987716
V        4.39328687       1.47501786      10.26356289      -9.17487746      -0.00163508       0.03739723      -0.02548926
V        2.93168361       2.93904972      -0.01406292      -9.81839567       0.01997392       0.02677384       0.00049742
V        4.41717071       4.40621594       1.40307940     -10.25409087       0.01464642       0.01064250       0.13985592
V        4.60776738       4.36331056       4.20468350      -9.38699850      -0.82910612       0.44251024       0.77614632
V        3.10116903       3.42895101       5.72434865      -9.06903987      -0.92409463      -2.60886985       0.89318140
V        4.45398582       4.46922707       7.38555853      -9.19556801      -0.01704831       0.07886097      -0.28465413
V        2.93529724       2.98096492       8.80681221      -9.43430730       0.02272730       0.05446444      -0.15841419
V        4.41845807       4.41707736      10.28625220      -9.78127716      -0.00673441       0.00763717      -0.05977025
V        2.91570493       5.87157544      -0.00729065      -9.96283163       0.01280486      -0.00337134      -0.00037583
V        4.41294213       7.34263568       1.38157610      -9.59015243       0.01277331      -0.00167379       0.01004098
V        2.89804794       6.08818184       5.88725536      -9.51422201       0.51996114      -0.55378660      -0.46645964
V        2.92140344       5.89663205       8.83658073      -9.95385467       0.01384144       0.03620287      -0.09774609
V        4.39631468       7.34433191      10.28446682      -9.78952029      -0.00875315      -0.00359753      -0.02378187
V        2.94196502       8.80209318       0.00923626      -9.20513895       0.00187685       0.00712015      -0.00179810
V        4.38712743      10.26327253       1.48815065      -9.02755899       0.00256410       0.02333593       0.00441317
V        2.99825452       8.73537029       3.00268736      -9.08659368       0.00518292       0.00953889       0.03971583
V        4.40005533      10.33017212       4.41086487      -8.84052503      -0.01383427       0.06060014       0.01621207
V        2.96237152       8.82259035       5.87659275      -9.31624953      -0.00974337      -0.11581784       0.00094621
V        4.39716918      10.29242013       7.34248499      -9.26327211      -0.02135750       0.03850473      -0.01990588
V        2.93548764       8.82723859       8.82214962      -9.74205338      -0.01961867      -0.00276256      -0.03435374
V        5.86139955      -0.01887641       0.00056705      -9.08904829       0.00655692       0.02735942       0.00944215
V        7.34836731       1.45874654       1.45753705      -9.07347569      -0.02032581       0.03551096       0.01702911
V        5.88567638      -0.01480424       2.93270277      -9.02388501       0.00422945       0.07843446      -0.01642435
V        7.35810767       1.45267317       4.40313068      -9.07807066      -0.02931739       0.06581884      -0.03398508
V        5.86147290       0.01882899       5.87520631      -8.97373280       0.03075250       0.03095059      -0.01371139
V        5.84364670      -0.00091446       8.79286312      -9.18997515       0.00735114       0.01577692       0.00120513
V        5.86399379       2.93233473      -0.01597289      -9.37915005      -0.00662938       0.01187069       0.03769174
V        7.35064612       4.39346464       1.45010599      -9.41890961      -0.00526377      -0.02590651       0.00451570
V        5.93841392       2.87575469       2.86089713      -9.21736730      -0.17515856       0.26496848       0.17234093
V        7.38818123       4.39705537       4.38217955      -9.13337969      -0.15923468       0.00668765      -0.02428051
V        5.92179480       2.91963689       5.87460267      -9.05324624      -0.06771093       0.07047216      -0.09167826
V        5.85723763       2.94408405       8.80276952      -9.14684764      -0.00261370       0.03017707      -0.02997808
V        7.33164013       4.41064354      10.27294789      -9.51942449      -0.00982368       0.00153481      -0.00906768
V        7.31759492       7.33739293       1.47536279      -9.33714586       0.00874332      -0.00487876      -0.00837616
V        5.89516967       5.93425584       2.90900943      -9.40932766      -0.03766875      -0.14318896       0.02402106
V        7.38428935       7.36900876       4.40091955      -8.97734709      -0.00727311       0.01126210      -0.01930421
V        5.83347994       5.91559061       5.82685051      -9.34952571      -0.01417975       0.11990147      -0.04242801
V        7.29959775       7.34071162       7.31365800      -9.38642195      -0.02353449       0.00546619      -0.00945777
V        5.87637516       5.88530946       8.82228944      -9.69621621      -0.02104718       0.01372406      -0.03028830
V        7.33200826       7.33574857      10.26151938      -9.47434232      -0.00163326       0.00622126      -0.00493394
V        7.32036875      10.26610489       1.47779743      -8.99501323       0.00162440       0.01687196      -0.00016002
V        5.81544303       8.76018967       2.96447587      -8.90012588      -0.00033830      -0.00022273       0.00023955
V        7.32164013      10.24931984       4.40149596      -9.06192002      -0.00799646       0.02093262      -0.00645664
V        5.79875340       8.78132735       5.83112514      -9.19767222      -0.03738922       0.00499408      -0.00498945
V        7.31101450      10.26851536       7.29209499      -9.22955722      -0.00590980       0.01207544      -0.00988155
V        5.87495700       8.81948427       8.81708430      -9.48102466      -0.01920588       0.00556096      -0.01047585
V        7.31140668      10.27406621      10.29594407      -9.16300208      -0.00002513       0.00978777      -0.00036662
V        8.80692019      -0.01101845       0.00460688      -9.21239965       0.00517925       0.00621517      -0.00516773
V        8.79830330      -0.00611008       2.92283538      -9.07233851      -0.00846318       0.02612638      -0.00426732
V        8.80832032       0.01164136       5.87106957      -9.22400806       0.00729844       0.02314171      -0.00617935
V       10.26769954       1.48838569       7.33458729      -9.30747721       0.02477822       0.03348464      -0.02124146
V       10.28156948       1.47184662      10.29124609      -9.38244606       0.00868416       0.01447608      -0.00156849
V        8.81694781       2.94535400       0.00229509      -9.19223407      -0.00895214      -0.00052480       0.00812733
V       10.27928055       4.39161626       1.46017881      -9.03711257       0.01106266       0.00389548       0.00322660
V        8.80147246       2.91933625       5.88166145      -9.29401795       0.00543177       0.02533102      -0.01634758
V       10.25218859       4.40359749       7.33535015      -9.28517891       0.04029660       0.02147854      -0.02645845
V        8.80986327       2.95347323       8.80961743      -9.35360574       0.01473333       0.00722497      -0.01044034
V       10.26076025       4.41175405      10.28272656      -9.40167200       0.01198616       0.01302272      -0.00997068
V       10.29142609       7.35176980       1.47456131      -8.96379426       0.00549074       0.01014806      -0.00268106
V        8.81647919       5.85664014       2.91103992      -9.15145388       0.00052646      -0.00016842       0.00333134
V       10.26836988       7.38059600       4.37987904      -9.20019026       0.03019808       0.00152101       0.00759793
V        8.79606571       5.87173078       8.82706069      -9.25374157       0.00970648       0.00882130      -0.00763932
V       10.29386955       7.33547593      10.28208235      -9.48769805       0.02215933       0.00478867      -0.01814221
V        8.78724423       8.80214278      -0.00572117      -9.14131076       0.00668233       0.00659630      -0.00850323
V       10.28432182      10.27155321       1.48161320      -9.06280126      -0.00248936       0.01448692      -0.00462613
V        8.77816489       8.81180910       2.89726621      -9.00040900       0.00012047       0.00286720      -0.00008836
V       10.24876444      10.24866586       4.38710241      -9.19795023       0.00202672       0.01260137      -0.00141137
V       10.27632958      10.25314659       7.33086114      -9.63698313       0.01704972       0.00334040      -0.00470358
V       10.29250301      10.27410948      10.29241652      -9.67107228       0.01001747       0.00629602      -0.00525175
W        1.47700388       4.41360504      10.28699400      -6.78563190       0.03474885       0.02190460      -0.03973131
W       -0.02950413       8.81331232       8.82070172      -6.79796173       0.04031288      -0.02011241      -0.03995858
W        2.95926324       2.94281177       2.87114348      -6.96488869       0.08924674       0.07037090       0.09587402
W        2.99618426       5.94107116       2.96579827      -7.14218421       0.01897337       0.11532598      -0.02160713
W        4.39466034       7.37883257       7.41841519      -6.67791527      -0.09173558      -0.02902604      -0.07927028
W        5.88881319       5.87314742      -0.01626904      -6.56210764      -0.00136581      -0.00716886       0.00535481
Zr      -0.00448884       8.81798793       2.93428913      -7.92421155       0.00452249       0.01366764       0.01659067
Zr       2.94479696       0.01389508       2.93926486      -8.08863570       0.01340828       0.03485076      -0.02324322
Zr       8.78855822       8.83229543       5.83390016      -8.10069616       0.00282914       0.00523957      -0.00572422
