127
Lattice="11.736635361891226 -0.00407584549339791 0.002664485705144228 -0.004075710617396691 11.738506413263783 0.0006529362281632765 0.002664967552593105 0.0006528921137531925 11.738346641132775" Properties=species:S:1:pos:R:3:energies:R:1:forces:R:3 energy=-1140.0068582217255 free_energy=-1140.0068582217255 stress="-0.019884217339837675 0.001754019406135292 0.0006857017867944448 0.001754019406135292 -0.01711261042428679 -0.0021269975929575123 0.0006857017867944448 -0.0021269975929575123 -0.021361686461867393" pbc="T T T"
Cr       0.01694708       2.92944339       8.80682591      -7.70813574      -0.01417878       0.02476420       0.01267491
Cr       1.48021760      10.28819224      10.29323811      -7.53622818      -0.00540628      -0.00212443      -0.00708401
Cr       7.30867980       1.48875273      10.25548555      -7.42966075      -0.00292051       0.00503734      -0.00191376
Cr      10.25681613       1.47954622       4.35892473      -7.13780455       0.00477336       0.01647481       0.00381119
Cr       8.82864090      -0.01981836       8.79513322      -7.45187757       0.00638330      -0.00089403       0.00007021
Cr       8.80181605       5.88501895       5.85114080      -7.09467173      -0.03778863       0.00846968       0.00730160
Ti       0.02458557      -0.00123397       5.88170811      -8.27387891       0.01605302       0.01831475       0.00401187
Ti       4.40177429      10.29055290      10.25709217      -8.24231113      -0.00370327       0.02016436       0.00817273
Ti       7.30576267       1.46482685       7.33714430      -8.30777545       0.01117499      -0.00012715      -0.00868666
Ti       7.34207365       4.39984424       7.34724286      -8.21638621      -0.00161488       0.00933836      -0.02489587
Ti       5.88227077       8.82018306      -0.00157706      -8.22706358      -0.00300441       0.00824976       0.00557283
Ti      10.27664688       1.46767797       1.45557387      -8.17762345       0.00731531       0.00503909      -0.00174134
Ti       8.80362689       2.94234184       2.89563261      -8.19502394      -0.02372574      -0.00849989      -0.00273315
Ti      10.27489406       4.37284050       4.38238420      -8.34716012       0.00168041       0.01017699       0.02395336
Ti       8.81982181       5.86763291      -0.00459293      -8.27924766       0.00643791      -0.00488727      -0.00332874
Ti      10.28684389       7.36630403       7.38334540      -8.56864316       0.02905016      -0.00120400       0.00510026
Ti       8.76376941       8.81073346       8.84607430      -8.51612413       0.00388200      -0.00201190      -0.00351400
V       -0.01368142       0.01660349       0.00508092      -9.18800418       0.00653931       0.00576678      -0.00363750
V        1.46825129       1.45836080       1.46709300      -9.54266699       0.02424186       0.01698450      -0.00515799
V        0.00662136       0.00695154       2.94927063      -9.14815115       0.01674740       0.01991024       0.00435808
V        1.52815485       1.53392685       4.41975131      -9.42811529       0.06485499       0.08553973      -0.02052116
V        1.53339833       1.51897527       7.29662022      -8.99124519       0.02278564       0.05407198      -0.01126330
V        0.00152596       0.01147461       8.78970331      -9.62633104       0.00853566       0.01314643      -0.00608303
V        1.47231474       1.46753948      10.28720607      -9.45072989       0.00736649       0.02491261      -0.01279376
V       -0.00784606       2.93597202      -0.00769274      -9.60911323       0.01276219       0.00560853      -0.00418141
V        1.47653606       4.39584482       1.46143889     -10.06673183       0.03649673       0.00904484       0.00452280
V        0.01175159       2.92890759       2.90944138      -9.39662267       0.01087315      -0.00019878      -0.05142517
V        1.35257994       4.43876608       4.35105833      -9.50247122      -0.06624958       0.21346994      -0.11429248
V       -0.03173154       2.93636839       5.87148468      -9.09297973       0.06773483       0.06460724       0.01485712
V        1.47143622       4.40903203       7.32640441      -9.35630504      -0.04894079       0.34181202       0.04023558
V        0.00022445       5.86516076      -0.00221262      -9.52892485       0.01538647       0.00693485       0.00178983
V        1.46756065       7.35655930       1.47132389      -9.48152383       0.01902273      -0.00219244       0.04574698
V       -0.01351991       5.86989887       2.90232919      -9.25590291      -0.01838378       0.03436754      -0.02395738
V        1.34936416       7.39870489       4.37341780      -9.19025951      -0.07197567       0.07434363       0.09269318
V       -0.04713001       5.86903515       5.88881448      -9.24478025       0.13315231       0.08406863       0.06404438
V        1.38491337       7.42582085       7.42524441      -9.62082006       0.20158410      -0.17598013      -0.18716826
V       -0.01961904       5.84658113       8.84293374      -9.82888315       0.01729139       0.04484265      -0.02005248
V        1.45345338       7.36054130      10.29979990      -9.85388074      -0.00198905       0.00473596      -0.03955177
V       -0.01122348       8.79783276       0.01503270      -9.30238501       0.00261224       0.00441841      -0.00381929
V        1.46589687      10.26125293       1.50066496      -9.21009176      -0.00009147       0.00724927       0.00307853
V        1.48570776      10.26258913       4.37636067      -9.04016763       0.00141967       0.01629527       0.01096491
V       -0.00134322       8.85594368       5.88008936      -9.24262507       0.00927781       0.00439730       0.05495211
V        1.46680455      10.28061723       7.37167072      -9.56184707      -0.00102265      -0.02538704       0.00567155
V        2.93507561       0.01090915      -0.00615886      -9.10669019      -0.00503636       0.01548797      -0.00434046
V        4.38735578       1.43781106       1.43137144      -9.40715604       0.02548683       0.01684039      -0.00312705
V        4.37362205       1.46441536       4.39779105      -9.38386181       0.05759849       0.19302100      -0.06476458
V        2.92785571      -0.02213584       5.89021578      -8.79543021       0.02379598       0.03554965      -0.01530890
V        4.36679280       1.52531912       7.28917856      -8.89661221       0.01426761       0.08038383      -0.05822242
V        2.93028722       0.02131082       8.78695252      -9.16374326      -0.00136745       0.01980129      -0.01646019
V        4.39344190       1.46463152      10.27074440      -9.16565191      -0.00734251       0.02385073      -0.00806278
V        2.92578034       2.93138451      -0.01345940      -9.83182676       0.00208725       0.01607436       0.00787382
V        4.41224250       4.40448632       1.36798717     -10.25111540      -0.00688104      -0.01863348      -0.01017015
V        4.82171904       4.25151886       4.00448743      -8.74044424       0.00411233       0.86379755      -0.01358637
V        3.33969367       4.08863633       5.49404009      -8.44948361      -1.09094204      -3.25805462       0.97156176
V        4.45807706       4.44844431       7.45733981      -9.03033857       0.14438301       0.21469782       0.02700145
V        2.92840812       2.96432120       8.84724761      -9.30342464       0.00530465       0.07243450      -0.08343888
V        4.41966516       4.41348736      10.30078518      -9.78549227      -0.02288960       0.01793125       0.00219949
V        2.91186582       5.87081305      -0.00703194      -9.95148817      -0.00377539       0.00338360       0.03678988
V        4.40915972       7.34426915       1.37943752      -9.58016567      -0.02595549      -0.00671601       0.02319518
V        2.77087830       6.23622209       5.99931330      -9.18508115       0.87578309      -0.09605825      -0.84744298
V        2.91855492       5.88563571       8.85988682      -9.94676828      -0.05048076       0.08745298      -0.12000977
V        4.39944383       7.34411481      10.29168424      -9.79623997      -0.01858094       0.01127150       0.00398835
V        2.94183363       8.79966888       0.00959821      -9.20386260      -0.00557217       0.00277972       0.01610146
V        4.38653147      10.25730255       1.48683038      -9.02957756      -0.00416339       0.01554730       0.01136324
V        2.99640533       8.73236169       2.99268073      -9.07238218      -0.00532325      -0.00265194       0.04344955
V        4.40467230      10.31579801       4.40536259      -8.82900138      -0.00596451       0.04019338       0.00884196
V        2.96455342       8.85619801       5.87677295      -9.28951564      -0.04272739      -0.00632970       0.04093261
V        4.40425344      10.28379448       7.34864259      -9.25874271      -0.00867507       0.01949555       0.00104469
V        2.94206367       8.82769985       8.83189461      -9.71672628      -0.04885081       0.01631633      -0.00012023
V        5.85896055      -0.02468556      -0.00069607      -9.08504929       0.00812012       0.00688191      -0.00339705
V        7.35324058       1.45005250       1.45389779      -9.03841648      -0.01385083       0.00576337       0.01124160
V        5.88311769      -0.03304557       2.93812092      -9.03022249       0.00217528       0.04697147      -0.00789798
V        7.36419077       1.43712756       4.41365412      -9.05145756       0.02153249       0.01206013      -0.02617802
V        5.85359997       0.01137227       5.87882421      -8.97445711      -0.00323031       0.03291816      -0.00858396
V        5.84263107      -0.00454106       8.79301921      -9.19326624      -0.00576787       0.02125642      -0.01287389
V        5.86397100       2.93040283      -0.02503221      -9.37716737      -0.00471715      -0.00579580       0.02346065
V        7.35008580       4.40193376       1.45159862      -9.40733506      -0.02215061      -0.03200741       0.02490579
V        5.98351532       2.80669862       2.81739626      -8.98171702      -0.08941032       0.09166660       0.08878284
V        7.42773598       4.39724724       4.39012084      -9.13769923      -0.00434815      -0.01171263       0.02029417
V        5.93714257       2.90379763       5.89899236      -9.03411484      -0.01026864       0.00856390      -0.13085323
V        5.85820297       2.93536437       8.81102736      -9.14847178       0.03701005      -0.00196292      -0.01702103
V        7.33438904       4.41040069      10.27668943      -9.51443933       0.00407197      -0.00359188      -0.00055235
V        7.31735847       7.34169067       1.47594923      -9.32665677       0.00433408      -0.00123788      -0.00390631
V        5.90649489       5.97658141       2.90147475      -9.30545858       0.16088149       0.00318344      -0.15538240
V        7.38690391       7.36711170       4.40714608      -8.97741713      -0.03205591      -0.00843254       0.03193363
V        5.83671544       5.88520021       5.83899368      -9.45633238      -0.41984095      -0.00946558      -0.11221797
V        7.30855786       7.33946301       7.31751525      -9.40222198      -0.06026471      -0.00900159      -0.02676694
V        5.88514405       5.88118731       8.83243208      -9.69346696       0.00798735       0.03858208       0.00175663
V        7.33416731       7.33509970      10.26384523      -9.47892729      -0.00170116       0.00167372      -0.00454239
V        7.32017660      10.26407173       1.47758460      -8.99490057       0.00056259       0.00421176       0.00088395
V        5.81880080       8.76310164       2.96133860      -8.89927029      -0.01657937       0.00817396       0.01236894
V        7.32334121      10.24445541       4.40258679      -9.06390960      -0.01235265       0.00938160       0.00065049
V        5.80844428       8.77893989       5.83304084      -9.19142428      -0.03970801      -0.02093118       0.00952648
V        7.31384184      10.26550562       7.29411552      -9.23418156      -0.00194630       0.00320889      -0.00345605
V        5.88336447       8.81927044       8.82237342      -9.48847011      -0.00937113       0.02057276       0.00123675
V        7.31284216      10.27299756      10.29645322      -9.16253722       0.00130798       0.00519394      -0.00084628
V        8.80530240      -0.01130607       0.00616870      -9.20970035       0.00601686      -0.00073732      -0.00567972
V        8.79889493      -0.01229196       2.92415360      -9.06696027       0.00312376       0.00580319      -0.00563645
V        8.80580949       0.00585721       5.87240335      -9.21694047       0.00312114       0.01038739       0.00466621
V       10.26033703       1.47862433       7.34014379      -9.30396654       0.00523022       0.02453787      -0.00292689
V       10.27833720       1.46799421      10.29255166      -9.38562685       0.00334667       0.00479672       0.00231683
V        8.81786287       2.94749420       0.00214936      -9.18997138      -0.00344273       0.00015588       0.00312377
V       10.27525017       4.38995408       1.45916320      -9.03576502      -0.00015728      -0.00414997      -0.00708389
V        8.79920186       2.91240680       5.88613347      -9.30327573      -0.01460257       0.01189646      -0.00070699
V       10.24252968       4.39577219       7.34205024      -9.27665979       0.01492630       0.02928694      -0.00312347
V        8.80574814       2.95101216       8.81322186      -9.35236186       0.00358215       0.00195744      -0.00544969
V       10.25741117       4.40727008      10.28576302      -9.40568261       0.00905504       0.00897705      -0.00673422
V       10.28894913       7.35010497       1.47349621      -8.96387013       0.00242546       0.00546412       0.00117698
V        8.81616013       5.85680755       2.91089385      -9.15026893       0.00867755      -0.00502433       0.01787375
V       10.25966354       7.37843167       4.37695601      -9.19854817      -0.00740339       0.01123452       0.02135954
V        8.79495342       5.86914071       8.82954807      -9.25716928       0.00099081       0.00553894      -0.01253663
V       10.28894989       7.33400571      10.28626594      -9.48754952       0.01343793       0.00651630      -0.00797204
V        8.78637932       8.80202800      -0.00449769      -9.14261504       0.00279048      -0.00207707      -0.00266071
V       10.28445582      10.26894630       1.48176093      -9.06400340       0.00250092       0.00565930      -0.00045362
V        8.77797662       8.81202325       2.89664509      -8.99866573      -0.00430804       0.00238136       0.00584021
V       10.24718627      10.24529718       4.38605928      -9.19740601      -0.00614639       0.01297714       0.00210023
V       10.27212735      10.25146369       7.33035410      -9.63765544       0.00130893       0.00554877       0.00579413
V       10.29006188      10.27315227      10.29331872      -9.67619629       0.00221078       0.00780143       0.00372113
W        1.46809819       4.40573019      10.29646937      -6.75943999       0.00141253       0.03106952      -0.02057646
W       -0.04009245       8.81794514       8.83150978      -6.78164688       0.03907863      -0.03410260      -0.03631110
W        2.93628341       2.92639218       2.84872407      -7.01427253       0.14221842       0.04047538       0.03813454
W        2.99061033       5.91143152       2.97251894      -7.35665550       0.10112839       0.00804077       0.39217351
W        4.42072029       7.38691062       7.44200245      -6.63982417      -0.05955984       0.11471930       0.09184714
W        5.88867419       5.87568888      -0.01737564      -6.53745298      -0.01891150      -0.00858430      -0.00608279
Zr      -0.00776971       8.81502949       2.92692732      -7.91139689      -0.01429456       0.02717734       0.00470332
Zr       2.94132024       0.00508400       2.94526073      -8.09700379       0.01006629       0.03882499       0.00952028
Zr       8.78864515       8.83057324       5.83478627      -8.09731989      -0.01097331       0.00040549       0.00194687
