127
Lattice="11.736635361891226 -0.00407584549339791 0.002664485705144228 -0.004075710617396691 11.738506413263783 0.0006529362281632765 0.002664967552593105 0.0006528921137531925 11.738346641132775" Properties=species:S:1:pos:R:3:energies:R:1:forces:R:3 energy=-1137.4133960625402 free_energy=-1137.4133960625402 stress="-0.02739632858906776 0.0008201077306600457 0.00040504757591433127 0.0008201077306600457 -0.022945239426101903 -0.0014545052941368672 0.00040504757591433127 -0.0014545052941368672 -0.029285618722190217" pbc="T T T"
Cr       0.02218308       2.92200429       8.80227599      -7.69682035      -0.00441633      -0.00118253       0.00134677
Cr       1.48152409      10.28950670      10.29603045      -7.51747331       0.00107641      -0.00208022      -0.00303799
Cr       7.30984290       1.48704472      10.25559864      -7.42361814      -0.00150431       0.00143464      -0.00045504
Cr      10.25548917       1.47412269       4.35769381      -7.12553325       0.00316001      -0.00177011      -0.00200130
Cr       8.82620400      -0.01962724       8.79494262      -7.44958635       0.00256797      -0.00468590      -0.00010977
Cr       8.81267249       5.88230147       5.84835427      -7.11019887      -0.00640687      -0.00035250      -0.00494396
Ti       0.01988224      -0.00690128       5.88094480      -8.25706172      -0.00115097       0.00384591      -0.00308719
Ti       4.40265142      10.28413059      10.25401483      -8.23339897       0.00308831      -0.00021296       0.00166109
Ti       7.30175721       1.46514927       7.33952486      -8.30558864       0.00133038      -0.00057332       0.00416400
Ti       7.34194017       4.39710906       7.35444878      -8.17890490       0.00512343       0.00374491       0.00471583
Ti       5.88295234       8.81719599      -0.00359275      -8.22287526       0.00516709       0.00125947      -0.00050105
Ti      10.27485175       1.46608609       1.45586582      -8.17910753       0.00329170       0.00045260       0.00372627
Ti       8.81064309       2.94393252       2.89509228      -8.19961259      -0.00324970      -0.00093354       0.00018374
Ti      10.27432580       4.37068809       4.37477277      -8.31956562       0.01257798       0.00337497       0.00764963
Ti       8.81809991       5.86912065      -0.00394374      -8.27711480      -0.00001709       0.00694144       0.00011862
Ti      10.27810982       7.36791139       7.38255972      -8.56755911       0.00074265      -0.00167933      -0.00072064
Ti       8.76138088       8.81111221       8.84719273      -8.50847973      -0.00407020       0.00279825       0.00012836
V       -0.01596572       0.01516000       0.00680441      -9.18849466      -0.00009612      -0.00192007      -0.00089410
V        1.46077037       1.45346934       1.46910820      -9.55751736      -0.00256384      -0.00197730      -0.00531450
V        0.00195070       0.00097175       2.94854766      -9.14738055       0.00151964       0.00375339      -0.00193393
V        1.50778523       1.50769706       4.42678219      -9.31857855       0.00784346       0.00496104      -0.00210922
V        1.52633090       1.50225919       7.30002995      -8.95762516      -0.00564429       0.00747297       0.00597329
V       -0.00098631       0.00793259       8.79169624      -9.63292663       0.00153143       0.00521631      -0.00245264
V        1.47006316       1.46022972      10.29126391      -9.44624543      -0.00464778       0.00063689       0.00056448
V       -0.01149819       2.93467690      -0.00630980      -9.60868277      -0.00156464      -0.00761033       0.00171667
V        1.46510702       4.39372431       1.46049665     -10.08288897      -0.00159139       0.00050155      -0.00073866
V        0.00868408       2.92965540       2.92612723      -9.42280352       0.00866698      -0.00300039      -0.00443642
V        1.37149173       4.37042766       4.38909150      -9.58996503       0.00589158      -0.00754560       0.00055479
V       -0.05512749       2.91606011       5.86694085      -9.08072014       0.00856920       0.00422146      -0.00213684
V        1.48721651       4.29668237       7.31371919      -9.20334590      -0.00491554       0.01687998       0.00190813
V       -0.00459471       5.86375642      -0.00235818      -9.53710132      -0.00306361      -0.00198541       0.00030475
V        1.46146200       7.35789574       1.45792115      -9.51211888       0.00344812      -0.00328802       0.01196457
V       -0.00627053       5.85972010       2.91177307      -9.30068133      -0.00362415      -0.00172900      -0.00323654
V        1.37370024       7.37443030       4.34459784      -9.27188439      -0.00956426      -0.00179315      -0.00886568
V       -0.09091195       5.84228821       5.86799981      -9.24094923       0.01091676      -0.00143107      -0.00128225
V        1.31778952       7.48353036       7.48755199      -9.22474631      -0.00341281      -0.00192590       0.00948995
V       -0.02453649       5.83303928       8.84893607      -9.78503018      -0.00172590      -0.00345161       0.00136011
V        1.45314613       7.36026643      10.31154457      -9.85181958       0.00306076      -0.00424239       0.00104762
V       -0.01215732       8.79642332       0.01669262      -9.30400382       0.00169488       0.00212723       0.00077897
V        1.46613628      10.25917696       1.50069113      -9.21264780      -0.00331991      -0.00206195       0.00025438
V        1.48532326      10.25611916       4.37387130      -9.04180262      -0.00306639       0.00145044       0.00218019
V       -0.00323861       8.85360416       5.86280925      -9.22634434       0.00233655      -0.00697846      -0.00463093
V        1.46677615      10.28830987       7.37016948      -9.56465951      -0.00292513       0.00246831      -0.00170363
V        2.93682968       0.00617448      -0.00472601      -9.10855695      -0.00143992      -0.00009320      -0.00119967
V        4.37944254       1.43284344       1.43223252      -9.38716475      -0.00151255       0.00653538       0.00580040
V        4.35564482       1.40148506       4.41767462      -9.20186707      -0.00180270      -0.00943260      -0.00247596
V        2.92004323      -0.03447364       5.89485577      -8.77677526       0.00069521       0.00125288      -0.00080245
V        4.36155121       1.50042491       7.30748371      -8.78590230       0.00055971       0.00579090      -0.00419218
V        2.93056971       0.01552518       8.79197226      -9.16304433      -0.00044520       0.00346834       0.00031704
V        4.39603562       1.45694736      10.27309995      -9.16169185      -0.00506105       0.00090966      -0.00618259
V        2.92573152       2.92669714      -0.01551601      -9.85430357      -0.00310306      -0.00120532       0.00112829
V        4.41400199       4.41087905       1.36948343     -10.24949193      -0.00342913       0.00484816      -0.00464055
V        4.82190158       3.97367215       4.00752867      -8.53344645       0.02007237      -0.03772926      -0.00365860
V        3.69489628       5.13880425       5.17689178      -8.34870612       0.00978192      -0.03645346       0.01281553
V        4.40984926       4.37905599       7.44926350      -9.10865936      -0.00201952      -0.00047990      -0.00896970
V        2.92635743       2.94118807       8.87594176      -9.28616428      -0.00183941       0.00582715      -0.01018283
V        4.42674330       4.40866628      10.30096817      -9.76914605      -0.01044549       0.00705579      -0.00958326
V        2.91344622       5.86975247      -0.01836355     -10.01650304       0.00554577      -0.00285361       0.00734307
V        4.41750195       7.34580836       1.37185483      -9.58780134      -0.00204293      -0.00401987       0.01166971
V        2.48614857       6.26166204       6.27458317      -8.32699160      -0.01775260       0.04205589      -0.00236171
V        2.93444712       5.85713952       8.89946673      -9.95319986      -0.00106678      -0.00284445      -0.00278939
V        4.40521465       7.34150942      10.28930884      -9.77948596      -0.00003541       0.00210907      -0.00282042
V        2.94337444       8.79946929       0.00449016      -9.21465154       0.00196451       0.00120648       0.00431935
V        4.38776526      10.25207024       1.48323556      -9.02919724      -0.00280384      -0.00674700      -0.00125220
V        2.99874473       8.73262087       2.97862585      -9.05449678      -0.00066969      -0.00643031       0.00203186
V        4.40611500      10.30227434       4.40317090      -8.82909920      -0.00548417      -0.01013575       0.00422801
V        2.97878433       8.85668987       5.86290551      -9.26491495      -0.00519980      -0.00096708       0.00514678
V        4.40639679      10.27700508       7.34810330      -9.24631531      -0.00105749       0.00054885       0.00542202
V        2.95697991       8.82191132       8.83079730      -9.67894055       0.00584458      -0.00389071      -0.00241169
V        5.85731568      -0.02717668      -0.00003253      -9.08403926      -0.00652002      -0.00143986      -0.00165751
V        7.35660352       1.44911419       1.45122904      -9.00830077       0.00796785      -0.01009344      -0.00897263
V        5.88334169      -0.04807857       2.94005204      -9.02681553      -0.00069221       0.00472499      -0.00113013
V        7.35740003       1.43265473       4.42158061      -9.04027508      -0.00480061       0.00334752       0.00371586
V        5.85484973       0.00099523       5.88145905      -8.97129290       0.00124162      -0.00351373       0.00185919
V        5.84384124      -0.01120403       8.79650833      -9.18985424       0.00113502       0.00395262      -0.00154198
V        5.86641999       2.93163510      -0.03198073      -9.37571257      -0.00259814       0.00352935       0.00488401
V        7.35786090       4.41188132       1.44257544      -9.41184353      -0.00056391       0.00639503      -0.00093563
V        6.01495315       2.77363759       2.78618186      -8.76014527       0.02332877      -0.01850701      -0.02328835
V        7.43043730       4.40133917       4.38373713      -9.11932210      -0.00061864       0.00854707       0.00782026
V        5.94117425       2.89979116       5.94114379      -8.91553127       0.00732497       0.00075743       0.00851559
V        5.84608327       2.93616555       8.81563618      -9.15044761       0.00386266      -0.00081764      -0.00680001
V        7.33353561       4.41141851      10.27615131      -9.52010184       0.00240270       0.00523046      -0.00039001
V        7.31513060       7.34108570       1.47789299      -9.34738441       0.00201242       0.00517569      -0.00075534
V        5.85466512       5.97571549       2.95128029      -9.48362223       0.00139671      -0.00817463      -0.00101305
V        7.39729017       7.36964656       4.39650597      -8.97384249      -0.00452448      -0.00381140       0.00454033
V        5.97027629       5.88715408       5.87411681      -9.34920926      -0.00063701       0.00626029       0.00359483
V        7.32608530       7.34292917       7.32622719      -9.40420946      -0.00617027       0.00217338       0.00302057
V        5.88109123       5.86957731       8.83050001      -9.72609625       0.00058123       0.00279535       0.00241035
V        7.33376781       7.33419003      10.26478496      -9.48359817       0.00189913       0.00663728       0.00079526
V        7.32001544      10.26202933       1.47736521      -8.99388188      -0.00140021      -0.00444599       0.00226934
V        5.82296773       8.75887158       2.95865297      -8.89603132       0.00605879      -0.00879565      -0.00822593
V        7.32750897      10.24129324       4.40248766      -9.06217985      -0.00471377      -0.00323183       0.00014090
V        5.82121652       8.78534110       5.82966527      -9.17992592      -0.00642073      -0.00541968       0.00154113
V        7.31361309      10.26444335       7.29548497      -9.23184340      -0.00229851      -0.00070475       0.00117704
V        5.88442571       8.81198338       8.82068922      -9.48551667      -0.00472670       0.00193687       0.00383449
V        7.31185111      10.27076756      10.29677162      -9.16331334       0.00298616      -0.00184610       0.00149691
V        8.80369871      -0.01174881       0.00781057      -9.20891777       0.00714919      -0.00736741      -0.00781218
V        8.79854348      -0.01409717       2.92537344      -9.06765897       0.00031916      -0.00181307       0.00665148
V        8.80504683       0.00246844       5.87132945      -9.21787128      -0.00089613       0.00174319       0.00149352
V       10.25878005       1.47160624       7.34127092      -9.30299294      -0.00193631       0.00192199       0.00041939
V       10.27768045       1.46669930      10.29185239      -9.38791220      -0.00000596      -0.00036471       0.00273230
V        8.81910612       2.94661362       0.00071686      -9.18803186       0.00012459       0.00716925      -0.00010457
V       10.27591954       4.39141107       1.46126044      -9.04298262      -0.00052146       0.00079686      -0.00017765
V        8.80352383       2.90875859       5.88614139      -9.30708506       0.00389089       0.00047677       0.00225994
V       10.23755827       4.38720316       7.34353065      -9.25895750       0.00279379      -0.00361306       0.00247919
V        8.80476127       2.95092177       8.81436384      -9.34553115      -0.00023999      -0.00200622       0.00220386
V       10.25442798       4.40502941      10.28774257      -9.40467721      -0.00017431      -0.00418974       0.00188062
V       10.28850471       7.34814644       1.47414018      -8.96713904      -0.00645224       0.00336464      -0.00250887
V        8.81332642       5.85855184       2.90473284      -9.13304216      -0.00353454       0.00476046       0.00353027
V       10.26295589       7.37601673       4.37085268      -9.19415584       0.00077381       0.00269991      -0.00004702
V        8.79404213       5.86803624       8.83325104      -9.25216731       0.00219326       0.00035433       0.00344818
V       10.28432107       7.33220561      10.28898965      -9.48216016       0.00284557      -0.00280229      -0.00167678
V        8.78522398       8.80222603      -0.00327961      -9.14642372       0.00436878       0.00044321      -0.00394141
V       10.28372117      10.26696061       1.48198378      -9.06196011      -0.00232027       0.00285732      -0.00338933
V        8.77936721       8.81070127       2.89489522      -8.99564066      -0.00269983       0.00010361      -0.00264746
V       10.24949845      10.24148713       4.38624183      -9.19724598      -0.00155526       0.00093964       0.00052131
V       10.27167110      10.25021721       7.32913564      -9.63740749       0.00118241      -0.00013157      -0.00575320
V       10.28865590      10.27131611      10.29330403      -9.68165243      -0.00918754       0.01208575       0.01093396
W        1.46763292       4.39706345      10.30315042      -6.73177002       0.00542426      -0.00088210      -0.00567966
W       -0.05027785       8.82687806       8.84107690      -6.73400215      -0.00320879      -0.00374481       0.00399814
W        2.89035604       2.91239127       2.83537115      -6.96334125      -0.01083658      -0.00551095      -0.00993695
W        2.95912887       5.90789014       2.84773992      -7.14641032      -0.00468592       0.01589446      -0.01833818
W        4.44158565       7.35116014       7.41304205      -6.78646908       0.01655621       0.00783669       0.01479570
W        5.89475458       5.87828140      -0.01510099      -6.52911305      -0.00648388       0.00474527       0.00552671
Zr      -0.00226836       8.80595364       2.92736656      -7.91666392      -0.00677225       0.00105982       0.00298405
Zr       2.93806102      -0.00712907       2.94200000      -8.08034112      -0.00056320       0.00463002      -0.00048441
Zr       8.79202703       8.83087521       5.83439622      -8.08935429       0.00062229       0.00042439      -0.00416520
