127
Lattice="11.736635361891226 -0.00407584549339791 0.002664485705144228 -0.004075710617396691 11.738506413263783 0.0006529362281632765 0.002664967552593105 0.0006528921137531925 11.738346641132775" Properties=species:S:1:pos:R:3:energies:R:1:forces:R:3 energy=-1139.8951019957258 free_energy=-1139.8951019957258 stress="-0.01926286644094856 0.0014172211448129932 0.00034745859936053834 0.0014172211448129932 -0.016413041801702305 -0.0024916207908568535 0.00034745859936053834 -0.0024916207908568535 -0.020815761359741308" pbc="T T T"
Cr       0.02297949       2.92417305       8.80144936      -7.68715969       0.00374540       0.00772469      -0.00348479
Cr       1.47954289      10.28655310      10.29517252      -7.52868324      -0.00734078      -0.00908434      -0.00183885
Cr       7.30985271       1.48694394      10.25847288      -7.42765944      -0.00009580      -0.00084218       0.00681642
Cr      10.25674668       1.47153554       4.35492818      -7.13954458       0.00441719      -0.00983419      -0.01082841
Cr       8.82550858      -0.02127841       8.79531943      -7.45627127      -0.00206508      -0.00534666      -0.00007509
Cr       8.81134982       5.87855336       5.84001952      -7.13927636      -0.00487699      -0.01383724      -0.02658778
Ti       0.02328451      -0.01030057       5.87910738      -8.26924272       0.01086875      -0.00954879      -0.00463131
Ti       4.40328184      10.28156390      10.25549066      -8.23165509       0.00255348      -0.00949737       0.00471524
Ti       7.30110997       1.45987626       7.33753522      -8.30321065      -0.00301266      -0.01647256      -0.00929180
Ti       7.34987512       4.38496588       7.36686039      -8.14263413       0.02103077      -0.03898604       0.03368575
Ti       5.87962040       8.80908748       0.00200119      -8.23667683      -0.00921163      -0.02560734       0.01710474
Ti      10.27394883       1.46448266       1.45485283      -8.18609338      -0.00032189      -0.00472664      -0.00253674
Ti       8.79934263       2.93939528       2.89412033      -8.19388522      -0.03443303      -0.01848924      -0.00581790
Ti      10.28480099       4.36707027       4.37261610      -8.29769509       0.03432837      -0.01177507      -0.00582152
Ti       8.81422325       5.86824344      -0.00085254      -8.28177346      -0.01080388      -0.00417623       0.00871553
Ti      10.28525739       7.36866060       7.38260611      -8.56659792       0.01879759       0.00202177       0.00075369
Ti       8.76100848       8.80962219       8.84663401      -8.50262976      -0.00431062      -0.00429790      -0.00028832
V       -0.01587378       0.01256297       0.00699801      -9.18813568       0.00024678      -0.00673738       0.00166709
V        1.46569348       1.44939721       1.46836475      -9.55935001       0.01803241      -0.01206094      -0.00112873
V        0.00324617      -0.00200727       2.94906806      -9.14814733       0.00689319      -0.00909482       0.00148108
V        1.52321344       1.51441159       4.42332081      -9.32058607       0.04681227       0.02091563      -0.00954333
V        1.53083889       1.49931610       7.29779252      -8.95473330       0.01612218      -0.00513576      -0.00893791
V       -0.00137097       0.00680486       8.79104758      -9.62992939      -0.00009894      -0.00002657      -0.00228187
V        1.47087258       1.45639809      10.29070553      -9.44509953       0.00304383      -0.01022219      -0.00043945
V       -0.01264156       2.93229110      -0.00758742      -9.60129012      -0.00035460      -0.00764548      -0.00297524
V        1.45638135       4.38209225       1.45452723     -10.08396364      -0.02306511      -0.03615248      -0.01634757
V        0.02418262       2.93159182       2.93194947      -9.43051249       0.05147737       0.00391085       0.01634023
V        1.48324691       4.36311833       4.40395170      -9.65508450       0.34682023      -0.01716900       0.04759502
V       -0.04494912       2.91798489       5.85601572      -9.08462390       0.03116803       0.00672906      -0.03349104
V        1.44030722       4.30579061       7.35803780      -9.03071603      -0.14495600       0.02771376       0.13711212
V       -0.00743292       5.86477329      -0.00306445      -9.53785527      -0.00905236       0.00224823      -0.00092334
V        1.45594026       7.35275299       1.46562854      -9.50898039      -0.01560957      -0.01485988       0.02476445
V       -0.00054694       5.85493561       2.92298171      -9.34539227       0.01928559      -0.01627612       0.03571569
V        1.38767502       7.36377079       4.37864813      -9.39370667       0.04036870      -0.03018909       0.10315810
V       -0.09011802       5.84932903       5.86381039      -9.25905703      -0.00121834       0.02039417      -0.01366240
V        1.35581038       7.44555244       7.45664051      -9.48713553       0.10700924      -0.10672201      -0.08607500
V       -0.01752870       5.84375550       8.84210959      -9.78591234       0.01988065       0.03145951      -0.01977126
V        1.45511706       7.36011215      10.30388868      -9.85556582       0.00491590      -0.00067213      -0.02156693
V       -0.01208849       8.79488134       0.01753049      -9.30118693       0.00012069      -0.00484535       0.00414954
V        1.46611522      10.25378417       1.50313746      -9.21314595       0.00111105      -0.01707959       0.00871631
V        1.48655109      10.24263767       4.37626543      -9.04070877       0.00369796      -0.03922308       0.00863116
V       -0.00361075       8.84853337       5.87176684      -9.24127117      -0.00214086      -0.01615803       0.02609701
V        1.46670258      10.27420459       7.37084736      -9.56680512      -0.00170469      -0.04041364       0.00275876
V        2.93790955       0.00151515      -0.00647978      -9.11256781       0.00544594      -0.01511762      -0.00456935
V        4.39477039       1.43379732       1.43768286      -9.42131374       0.04758061       0.00431281       0.01939462
V        4.36503719       1.40382462       4.40031631      -9.21005121       0.02523577       0.01056354      -0.05169056
V        2.92116349      -0.04875385       5.89417952      -8.77535777       0.00446129      -0.04049327      -0.00256778
V        4.36204382       1.50360103       7.29895718      -8.79510351       0.00137725       0.01184163      -0.02623333
V        2.93134569       0.01171248       8.78925873      -9.16587588       0.00187381      -0.01086796      -0.00765993
V        4.39864279       1.45617788      10.27062812      -9.16216163       0.00885258      -0.00477908      -0.00846752
V        2.93129281       2.92284118      -0.01984397      -9.87355715       0.01814990      -0.01374004      -0.01044340
V        4.42123738       4.38781431       1.41262792     -10.24542479       0.02299570      -0.06823941       0.13092195
V        4.53235204       4.02088747       4.26579913      -9.27433237      -0.88187753       0.15176758       0.78537260
V        4.06219709       6.18136130       4.87766492      -8.68931498       1.12437411       3.19712812      -0.90362829
V        4.38174845       4.38571901       7.32400471      -9.18052947      -0.08821945       0.02487348      -0.38706972
V        2.93774184       2.94328319       8.86742755      -9.29340918       0.03408275       0.00675181      -0.02585302
V        4.42828328       4.40708398      10.28689327      -9.74568961       0.00357327      -0.00501297      -0.04447634
V        2.91943904       5.86385464      -0.02104594     -10.04443342       0.01954986      -0.01978907      -0.00828395
V        4.41378677       7.31934074       1.40202597      -9.59953695      -0.01097376      -0.08022954       0.08721566
V        2.50161187       5.96278629       6.25584981      -8.46310053       0.02639250      -0.91539512      -0.04003705
V        2.93592529       5.86227904       8.89511942      -9.98681838       0.00449659       0.01473387      -0.01108163
V        4.40384140       7.33803416      10.28675934      -9.77346364      -0.00432687      -0.01263017      -0.00874145
V        2.94484391       8.79367388       0.00523634      -9.21597712       0.00384775      -0.01765782       0.00260839
V        4.38645699      10.24766737       1.48836392      -9.02799219      -0.00367374      -0.01631875       0.01633809
V        2.99289676       8.70392572       2.99757130      -9.14427195      -0.01505323      -0.09007989       0.05965294
V        4.40076075      10.29152907       4.41244397      -8.84647780      -0.01615716      -0.02780967       0.02858931
V        2.96152494       8.79172323       5.88446765      -9.45364935      -0.05378098      -0.19881840       0.06740738
V        4.40289030      10.26353320       7.34499474      -9.25343009      -0.01071764      -0.03971965      -0.00836564
V        2.94778646       8.82089660       8.83560252      -9.70761798      -0.02812201      -0.00387253       0.01534476
V        5.86040683      -0.02740987       0.00128050      -9.08636228       0.01160365      -0.00264599       0.00390391
V        7.34957410       1.45261588       1.45636291      -9.06939008      -0.02037657       0.00842618       0.01462373
V        5.88343792      -0.03643896       2.93568299      -9.02394863       0.00139698       0.03634801      -0.01347768
V        7.35899765       1.42983217       4.40528180      -9.05849680       0.00244921      -0.00828787      -0.05009791
V        5.85412038      -0.00699068       5.88018033      -8.96902288      -0.00179422      -0.02219397      -0.00586220
V        5.84314013      -0.01230294       8.79617413      -9.18993233      -0.00185713      -0.00375754      -0.00353029
V        5.86707691       2.92967354      -0.01723221      -9.37580294       0.00453802      -0.00890832       0.04645990
V        7.35306581       4.39290744       1.44633858      -9.43290384      -0.01566419      -0.05830192       0.01132986
V        5.94171281       2.84151073       2.85643155      -9.16379885      -0.21779234       0.20577805       0.21039787
V        7.38974467       4.36988795       4.36453483      -9.10312711      -0.12369841      -0.09535602      -0.05866209
V        5.95710008       2.87663599       5.90893876      -8.83268937       0.04643431      -0.06818418      -0.09957530
V        5.83712072       2.93782055       8.80265498      -9.15491683      -0.02587171       0.00218106      -0.04373912
V        7.32789563       4.40898832      10.27725164      -9.52861072      -0.01614962      -0.00979775       0.00089330
V        7.31842094       7.33240823       1.47465492      -9.35501324       0.00931804      -0.02810592      -0.00855193
V        5.86089497       5.86970877       2.94314479      -9.61396534       0.01815978      -0.31907719      -0.02488580
V        7.36846038       7.35044827       4.39095683      -8.99298808      -0.08295248      -0.05932014      -0.01780975
V        5.99177260       5.80456165       5.93232164      -9.18394041       0.06781931      -0.24969849       0.17335359
V        7.32427618       7.34688227       7.34506955      -9.37417033      -0.00815452       0.01087688       0.05675742
V        5.86972170       5.86889592       8.83326873      -9.73814056      -0.03533046      -0.00440385       0.00621874
V        7.33082275       7.33300477      10.26680478      -9.48275255      -0.00970896      -0.00556513       0.00499926
V        7.31862611      10.25948919       1.47920658      -8.99414585      -0.00397812      -0.00958969       0.00620883
V        5.82132173       8.74593041       2.96455960      -8.90078006      -0.00444659      -0.04094098       0.01660863
V        7.32146673      10.23710787       4.40319233      -9.06358047      -0.01889461      -0.01502650       0.00101239
V        5.80226101       8.75298972       5.83677530      -9.30316092      -0.06016784      -0.10108791       0.01953190
V        7.30947186      10.25936291       7.29511034      -9.23132104      -0.01405912      -0.01667820      -0.00235686
V        5.87565738       8.80740926       8.82228945      -9.47408342      -0.02698975      -0.01352910       0.00601216
V        7.31065363      10.26965917      10.29839656      -9.16313105      -0.00386081      -0.00482915       0.00569422
V        8.80421073      -0.01464574       0.00658935      -9.21277225       0.00337521      -0.01007635      -0.00519700
V        8.79616115      -0.01499899       2.92222389      -9.06715615      -0.00628713      -0.00412180      -0.01073387
V        8.80522975      -0.00107168       5.87094247      -9.21859016       0.00049766      -0.01259500      -0.00159238
V       10.25906125       1.46930396       7.33961226      -9.30258819       0.00075020      -0.00519509      -0.00563786
V       10.27749355       1.46790209      10.29212774      -9.38734069       0.00019764       0.00452802       0.00122716
V        8.81352929       2.94235576       0.00431104      -9.19262862      -0.01632930      -0.01503152       0.00998646
V       10.27523270       4.38918644       1.46453274      -9.04892812       0.00075467      -0.00965711       0.00906247
V        8.80920662       2.90439544       5.88156603      -9.30545469       0.01604949      -0.01614139      -0.01627775
V       10.23612327       4.38750672       7.34150259      -9.27531589      -0.00497797       0.00024990      -0.00515206
V        8.80324245       2.94951189       8.81461175      -9.34107626      -0.00413583      -0.00447577      -0.00206116
V       10.25130546       4.40618277      10.29023401      -9.39943061      -0.00959234       0.00238678       0.00695102
V       10.28751121       7.34744680       1.47610131      -8.97258472      -0.00297141      -0.00344026       0.00671920
V        8.81032530       5.85337509       2.90652142      -9.14533983      -0.00748923      -0.01762420       0.00458899
V       10.26787509       7.37538891       4.36952362      -9.18844090       0.01513658      -0.00262910      -0.00182370
V        8.79606827       5.86933151       8.83802384      -9.24321511       0.00357618       0.00333850       0.01430148
V       10.28512370       7.33124545      10.28897420      -9.48155296       0.00126211      -0.00352113       0.00107801
V        8.78498336       8.80134705      -0.00336097      -9.14347054      -0.00049095      -0.00335133       0.00010326
V       10.28092823      10.26608739       1.48249266      -9.06292503      -0.00760991      -0.00258572       0.00079147
V        8.77402633       8.80243603       2.89742958      -9.00260656      -0.01629742      -0.02744385       0.00694950
V       10.24767002      10.23785211       4.38535322      -9.20019689      -0.00582803      -0.01174782      -0.00248788
V       10.27048578      10.25010284       7.32988826      -9.63852581      -0.00374040      -0.00001079       0.00231264
V       10.28791794      10.27071605      10.29374442      -9.67746151      -0.00398646       0.00158228       0.00449680
W        1.47356321       4.39977447      10.30314217      -6.75734462       0.01846653       0.00758328       0.00062885
W       -0.04424709       8.82211394       8.83441656      -6.76514791       0.01775782      -0.01300594      -0.01697789
W        2.91921462       2.88902570       2.81694380      -6.87651153       0.08665114      -0.07026690      -0.05617449
W        2.90497831       5.84209626       2.81994029      -6.92791466      -0.16693693      -0.19876673      -0.09594189
W        4.39534228       7.34316937       7.40970065      -6.80710259      -0.13966116      -0.02425074      -0.01007338
W        5.89222302       5.86948926      -0.00811616      -6.55231597      -0.00734228      -0.02959885       0.02032974
Zr      -0.00535952       8.80051796       2.93480193      -7.92051026      -0.01043210      -0.01551775       0.02375770
Zr       2.93980230      -0.01288741       2.94243143      -8.09778981       0.00699240      -0.01566467       0.00190735
Zr       8.79049747       8.82685478       5.83248225      -8.10164459      -0.00479275      -0.01258750      -0.00582563
