124
Lattice="-7.560079518782137 7.562060943398408 7.558757108263703 7.5519590757649055 -7.563782997213921 7.552359248763504 7.560400207638752 7.564103484514047 -7.560478948751022" Properties=species:S:1:pos:R:3:forces:R:3 energy=-1100.5754503250396 free_energy=-1100.5754503250396 stress="0.005665089946734782 -0.00020261026879325758 0.000733369954730138 -0.00020261026879325758 0.004350476001457221 -1.5666771916777716e-05 0.000733369954730138 -1.5666771916777716e-05 0.004852756206981226" pbc="T T T"
Cr       1.48614145       1.49696893      -1.51042931       0.00050887       0.00007574       0.00034437
Cr      -0.02822117       2.97026936       2.98648504      -0.00041541       0.00076215       0.00029160
Cr      -1.56968099       4.46433000       4.50354064       0.00020532       0.00059793      -0.00138594
Cr       3.06466131       9.06364692       3.01318253       0.00127112      -0.00018658       0.00016996
Ti       6.04693250      -3.05980217       3.06613385      -0.00016236      -0.00141953       0.00094714
Ti       9.12691652      -0.09397010      -0.12129858       0.00096338       0.00101352      -0.00154256
Ti       3.02444243       6.04687322      -3.02324022      -0.00001595       0.00101089       0.00003876
Ti       7.55098261       1.49822159       1.47058576       0.00098762      -0.00222799       0.00056818
Ti      -0.01212823       6.04256426       0.01483844      -0.00004454       0.00042548       0.00099021
Ti       5.98505441       2.99834473       3.07704824      -0.00005543      -0.00854533       0.00080074
Ti       2.97211445      -3.08575325       9.01743335      -0.00191250       0.00087636      -0.00014841
Ti      -0.03144238       5.99030960       2.90708133       0.00095959       0.00038083       0.00030580
Ti      -0.06129087       2.99630161       6.05690974       0.00025726      -0.00037308       0.00087185
Ti       1.57610252       4.45081628       4.47475037       0.00070623       0.00150873      -0.00017779
Ti      -4.53918710       4.54843349       7.60765661      -0.00029540       0.00034414      -0.00094891
Ti       0.03499889       9.15881337       2.90054955       0.00009996       0.00020917      -0.00013989
V        0.02352651       0.03110010      -0.02943409      -0.00035975      -0.00041029      -0.00223497
V        2.99425698       2.99071589      -3.01697697      -0.00017820       0.00094506       0.00053432
V        4.56648112       4.50950395      -4.57963860       0.00064360       0.00082674       0.00033478
V        6.07406882       6.06474364      -6.04701306       0.00060226       0.00069858      -0.00020090
V        1.44499611      -1.45951699       1.54973794      -0.00016813      -0.00003353      -0.00035194
V        2.94574898       0.03886307      -0.01731780      -0.00058252       0.00015116       0.00021174
V        4.44143202       1.62081765      -1.39805863      -0.00062127       0.00154321       0.00125546
V        5.99552906       3.14242656      -3.00915145       0.00017069       0.00100497       0.00092274
V        7.56157505       4.55752846      -4.54622794      -0.00029864       0.00042299       0.00078423
V        3.00939858      -2.99924078       3.04475965      -0.00168233      -0.00106146       0.00064885
V        4.49715403      -1.42637782       1.56746493       0.00132860      -0.00068161       0.00024649
V        5.96759343      -0.05786068       0.04696916      -0.00017743      -0.00043644      -0.00010246
V        7.64797654       1.75260738      -1.42466903      -0.00139642       0.00043084       0.00122024
V        9.13532880       3.08773189      -3.04849606      -0.00060112      -0.00044419      -0.00008320
V        4.48595626      -4.62311169       4.53351831      -0.00012933       0.00081585       0.00058981
V        7.54485091      -1.51234534       1.52196347       0.00087427      -0.00157975      -0.00091270
V       10.66378959       1.53644735      -1.56223271       0.00086810      -0.00063354      -0.00153127
V        6.05047195      -6.08655742       6.02518188      -0.00013825      -0.00088212      -0.00153595
V        7.62210895      -4.64251064       4.60101540       0.00056401      -0.00072064       0.00068286
V        9.01178189      -3.06982169       3.00619041       0.00131108      -0.00095244       0.00019819
V       10.64099269      -1.51370748       1.57209180       0.00063546      -0.00067339      -0.00021815
V       12.12169786       0.01724720      -0.00302664       0.00035003      -0.00067247      -0.00232715
V       -1.45159362       1.51371697       1.50961579      -0.00035069      -0.00040755      -0.00094925
V        0.02440013       2.97722402      -0.03701398       0.00026987      -0.00028329      -0.00009231
V        1.49493013       4.46421056      -1.52066029       0.00021748       0.00025347       0.00033890
V        4.56828849       7.60158321      -4.57423683      -0.00042225       0.00081008       0.00000898
V        0.00127846      -0.01851202       3.01246216      -0.00110916       0.00089375       0.00050164
V        1.47331148       1.51009312       1.53005093      -0.00020534       0.00149216      -0.00038324
V        2.98511702       3.01195395      -0.02059952       0.00097128       0.00176863       0.00202664
V        4.55071773       4.52008166      -1.48204965       0.00061844       0.00151747       0.00086592
V        6.04985305       6.05454124      -3.06037962       0.00041838       0.00159503       0.00063073
V        1.50113478      -1.48449307       4.52617060       0.00009377       0.00027503      -0.00039978
V        2.99120519       0.00188287       3.02585851      -0.00091372      -0.00128219      -0.00010820
V        4.47011383       1.48821117       1.48626238       0.00045797      -0.00150050       0.00122379
V        5.99421408       3.16369181       0.03818790      -0.00072555       0.00058543       0.00094731
V        7.56866670       4.60022716      -1.52682405      -0.00120122       0.00228555       0.00069137
V        3.03632472      -2.99959461       6.02530234      -0.00207657      -0.00073998       0.00119481
V        4.48717313      -1.49830693       4.57370271      -0.00045911      -0.00111949       0.00057332
V        6.00529915      -0.06644240       3.05788258       0.00004052      -0.00533615      -0.00048618
V        9.05984109       3.05146151      -0.10394032      -0.00068134       0.00248332       0.00136327
V        4.58413377      -4.59728749       7.49842805      -0.00118190      -0.00085492      -0.00049479
V        6.04145399      -3.07892890       6.00745611      -0.00001870      -0.00076891       0.00211354
V        7.62411115      -1.51039494       4.58049013      -0.00074854      -0.00092817       0.00029441
V        9.09792737       0.01570681       3.00653538       0.00105332      -0.00065535      -0.00116835
V       10.60067016       1.54192118       1.53115748      -0.00146150       0.00134643      -0.00081748
V       -2.98692437       3.01983271       3.08345893      -0.00037499       0.00038437      -0.00039140
V       -1.56084903       4.40280810       1.50295074       0.00018283       0.00016796       0.00089250
V        1.53247897       7.61365828      -1.48786102      -0.00011525       0.00018457       0.00010631
V        3.04925106       9.08203070      -3.04508014      -0.00030193       0.00042529      -0.00056638
V       -1.48760620       1.45339190       4.46034646      -0.00009751       0.00029081       0.00013295
V        1.57580970       4.40511270       1.50701240       0.00114492       0.00046610      -0.00058449
V        3.05194610       6.04167639      -0.01809991       0.00038748       0.00076060      -0.00084414
V        4.57762459       7.59498096      -1.49064151       0.00003795       0.00062610       0.00098985
V       -0.00028456       0.01336457       6.03416611      -0.00037048       0.00056048       0.00124440
V        1.50926776       1.50619597       4.47497976       0.00004672       0.00265463      -0.00079889
V        3.11777705       2.98851261       2.99324144       0.00104755      -0.00167876       0.00099364
V        4.57169226       4.68539589       1.53201661       0.00336047       0.00201040       0.00411847
V        6.05559281       6.07628401      -0.11261558       0.00053811       0.00040265      -0.00069494
V        1.44809209      -1.45200417       7.53793282      -0.00065052       0.00219949      -0.00034402
V        2.99142777       0.01692951       6.04749363      -0.00129388       0.00011134       0.00023830
V        4.45927982       1.48401071       4.57749969      -0.00003540      -0.00057375      -0.00024510
V        7.48602186       4.69503982       1.55381174      -0.00598272       0.00394164       0.00532487
V        4.56023902      -1.51512032       7.50063371       0.00009074       0.00090636       0.00137370
V        6.01714765       0.02960572       5.99612024      -0.00049046      -0.00141089       0.00108008
V        7.57247745       1.49116504       4.55080609       0.00006204      -0.00112930      -0.00007956
V        8.98529282       3.07436851       3.06672432      -0.00048715      -0.00031077      -0.00065464
V       -4.56528008       4.55455989       4.53368262      -0.00183278       0.00222541      -0.00013994
V       -3.01171249       5.98274113       3.05706152      -0.00012088       0.00067563       0.00141501
V       -1.72291417       7.61470031       1.44192567      -0.00034610      -0.00001855       0.00187616
V       -0.02010195       9.08865810       0.00195245       0.00060751       0.00043055      -0.00023154
V       -2.96872484       3.01043317       6.00048531      -0.00051728      -0.00064027       0.00097383
V        1.70296110       7.63177030       1.48315808       0.00154834       0.00024148      -0.00094239
V        3.06292667       9.06215259      -0.02231517       0.00007465      -0.00021778      -0.00047884
V       -1.53344448       1.41896719       7.62394888       0.00026874       0.00050948       0.00075672
V        3.00486854       6.06545007       2.96864619       0.00124950      -0.00056939      -0.00019095
V        4.61258382       7.50642857       1.56740364       0.00157809      -0.00218995       0.00143083
V       -0.05843286      -0.07884423       9.14700375      -0.00342247      -0.00336210       0.00473013
V        1.51314323       1.45899150       7.60466766      -0.00028113       0.00033544      -0.00030375
V        3.04997071       2.96957691       6.10117836       0.00128819      -0.00021045      -0.00021849
V        4.56962577       4.65256999       4.53943228       0.00307612       0.00296275      -0.00294034
V        1.56771066      -1.48150915      10.61292830       0.00345412      -0.00116762      -0.00046970
V        2.99023373      -0.02256532       9.07988161      -0.00176321       0.00006833       0.00069423
V        4.49619366       1.52551379       7.53260762      -0.00024995       0.00155935      -0.00111740
V        6.01839423       3.07210428       6.01397563      -0.00071461      -0.00172590       0.00088636
V        7.49155701       4.70749676       4.48242245      -0.00350462       0.00313921      -0.00263850
V       -6.11075417       6.10082265       6.00270970      -0.00042548       0.00023299      -0.00088608
V       -4.60519817       7.59736493       4.57899590      -0.00248410      -0.00012658       0.00110260
V       -3.12541220       9.14400577       2.99112741       0.00022380      -0.00046812       0.00054560
V       -1.55600544      10.65033912       1.44191953       0.00037481       0.00027226       0.00008184
V        0.00450962      12.12552719      -0.00698162       0.00055266       0.00139230      -0.00082843
V       -3.07793971       6.00564295       6.06274333      -0.00028868       0.00047445      -0.00027496
V        1.55460425      10.59567099       1.54115472       0.00005887      -0.00027625      -0.00041472
V       -3.06460696       2.86913006       9.12289216      -0.00021242       0.00068339      -0.00049442
V       -1.60235158       4.52661950       7.62780662      -0.00011067      -0.00066163      -0.00081131
V       -0.08739427       5.78230376       6.11296952      -0.00037768      -0.00051728      -0.00037797
V        1.69965886       7.59219904       4.49427574       0.00273663      -0.00032993      -0.00109372
V       -1.48314149       1.56561407      10.59031202      -0.00090075       0.00265222      -0.00106897
V        0.00787452       2.93405302       9.05194686       0.00045540       0.00090686      -0.00064405
V        1.53879284       4.53060872       7.61894087       0.00075787       0.00024324      -0.00172857
V        3.19407420       6.01458041       5.98067361       0.00477408      -0.00181883      -0.00225216
V        4.61792315       7.53671476       4.42175709       0.00479787      -0.00401227      -0.00430611
V       -0.07142208      -0.02838863      12.04828835      -0.00417779      -0.00521646      -0.00488100
V        1.48407197       1.46811630      10.58196484      -0.00006019      -0.00017552      -0.00064101
V        2.98435142       3.02680305       9.06812502      -0.00028929       0.00001685      -0.00006177
V        4.54896209       4.54548503       7.54868135       0.00075096       0.00136852      -0.00165784
V        6.06502737       6.07592546       6.14537674      -0.00025971      -0.00174576       0.00198605
W        1.48447970      10.59551123      -1.53485215      -0.00009657       0.00036577      -0.00100665
Zr      -1.41693315       7.63244928       4.67130081       0.00045169       0.00016505      -0.00166046
