124
Lattice="-7.591332893 7.571263322 7.572119558 7.538506746 -7.580117697 7.52813586 7.578493281 7.567320257 -7.581026814" Properties=species:S:1:pos:R:3:forces:R:3 stress="0.0039043573091688947 -0.00027899545792698163 -0.0007369911560751693 -0.00027899545792698163 0.003656045110104755 0.0002151136120235665 -0.0007369911560751693 0.0002151136120235665 0.0045966342938662365" free_energy=-1096.78823875 energy=-1096.77027836 pbc="T T T"
Cr       1.42164000       1.48055000      13.55924000      -0.00049400       0.00020900       0.00010900
Cr      -0.04520000       2.95587000       2.98670000      -0.00082100      -0.00058600       0.00021900
Cr      -1.57274000       4.46820000       4.52631000      -0.00023600       0.00023600       0.00048900
Cr       3.03530000       9.07002000       3.01602000       0.00029100      -0.00030500      -0.00012600
Ti      -1.55008000       4.47660000      10.62701000       0.00005500      -0.00003100      -0.00066100
Ti       1.52960000       7.48263000       7.43064000      -0.00063800       0.00007000      -0.00010300
Ti       3.04245000       6.04473000      -3.02255000       0.00055200      -0.00014800       0.00046900
Ti       7.47727000       1.47092000       1.43667000      -0.00046300      -0.00035900      -0.00062200
Ti       7.50391000      -1.52564000       7.55120000       0.00026600      -0.00014900      -0.00010400
Ti       6.03879000       3.12921000       3.08015000       0.00024400       0.00020700      -0.00035000
Ti      10.33767000       4.72969000       1.67102000      -0.00035600       0.00106900       0.00126800
Ti      -0.01786000       6.00566000       2.91242000      -0.00010400      -0.00011200      -0.00038500
Ti      -0.06951000       2.98823000       6.06122000      -0.00015000      -0.00048700       0.00036700
Ti       1.54429000       4.44035000       4.44976000      -0.00064400       0.00015700      -0.00023900
Ti      -4.55874000       4.54186000       7.61630000      -0.00076500      -0.00077700      -0.00004600
Ti       0.01417000       9.18114000       2.90887000       0.00011900      -0.00015900      -0.00026600
V       -0.05953000       0.02571000      15.04523000       0.00004000       0.00020700       0.00006500
V        2.93479000       2.97332000      12.07082000      -0.00015600      -0.00033400       0.00007500
V        4.51461000       4.51131000      10.49657000       0.00006600      -0.00074200      -0.00046400
V        6.02822000       6.06857000       8.99450000       0.00018800      -0.00052100       0.00021900
V        9.00844000       6.09683000      -6.04171000      -0.00006100      -0.00047800       0.00013200
V       -4.64613000       7.59786000       7.51547000       0.00005400       0.00042000      -0.00039500
V        4.41715000       1.58792000      -1.45810000      -0.00051900      -0.00000400      -0.00040500
V        5.99456000       3.14416000      -3.03859000      -0.00061400      -0.00020700       0.00018600
V        7.55950000       4.56072000      -4.58136000       0.00036900      -0.00068000      -0.00019200
V        3.00284000      -3.01692000       3.02310000       0.00012100      -0.00014000      -0.00047000
V        4.49834000      -1.44646000       1.55561000       0.00002000       0.00018600       0.00014600
V       -1.65467000       7.48278000       7.57936000      -0.00010800       0.00014800      -0.00001000
V        7.64861000       1.74950000      -1.46563000       0.00012100      -0.00007100      -0.00052500
V        9.13954000       3.08874000      -3.04946000       0.00013300      -0.00009900      -0.00026800
V        4.46596000      10.52069000       4.52547000       0.00029400       0.00006000      -0.00004300
V       -0.05659000       6.03637000       9.06198000       0.00037100       0.00029900       0.00001200
V       10.66393000       1.56907000      -1.54551000       0.00023000       0.00013900       0.00043800
V       13.60632000       1.49976000      -1.54815000       0.00010500      -0.00001900       0.00070300
V       -0.00707000       2.91242000      12.16394000       0.00050700      -0.00010800       0.00033200
V        1.41368000       4.51460000      10.55555000      -0.00013900      -0.00034900      -0.00059000
V       10.63882000      -1.53121000       1.54211000       0.00031500      -0.00027100       0.00002700
V       12.13362000       0.02167000      -0.02861000       0.00002200       0.00046800       0.00040400
V       -1.46983000       1.53732000       1.52408000      -0.00056000      -0.00021600       0.00015500
V        7.52474000      -4.58738000       7.49983000      -0.00008400      -0.00024800      -0.00019800
V        9.01487000      -3.11322000       6.01270000      -0.00025100      -0.00051700       0.00054300
V        4.58712000       7.60928000      -4.58774000       0.00073400       0.00062300      -0.00023000
V        7.57094000       7.54283000      -4.58281000      -0.00007000       0.00005900       0.00003900
V        1.46532000       1.49655000       1.50665000      -0.00000400       0.00029800      -0.00023600
V        2.96403000       2.98667000      -0.04316000       0.00009000      -0.00005800      -0.00101500
V        4.54853000       4.51656000      -1.49912000       0.00032800      -0.00065800       0.00039100
V        6.04774000       6.05687000      -3.06714000      -0.00017200      -0.00063500       0.00004600
V        1.48317000      -1.49173000       4.48969000       0.00027400      -0.00034400       0.00039000
V        2.98898000       0.00107000       3.00568000      -0.00003200      -0.00006400      -0.00026700
V        4.46395000       1.48137000       1.48232000      -0.00005500       0.00057300      -0.00011600
V        5.97927000       3.10671000      -0.03344000      -0.00021000      -0.00037600      -0.00038100
V        7.53433000       4.58184000      -1.55807000       0.00013700      -0.00051500      -0.00018000
V        3.00482000      -2.99852000       6.01618000       0.00036400       0.00015300      -0.00029200
V        4.47852000      -1.50279000       4.55161000      -0.00002400       0.00026300      -0.00017400
V        5.98577000      -0.08599000       3.04684000       0.00027100       0.00037600      -0.00078000
V        9.06630000       3.08020000      -0.06804000      -0.00015300      -0.00047500      -0.00019800
V        4.50175000      -4.53141000       7.54398000      -0.00019600      -0.00012700       0.00040000
V        5.99640000      -3.07973000       6.00424000       0.00028300       0.00000900       0.00002300
V        7.59485000      -1.52468000       4.57558000       0.00048100      -0.00004400       0.00018000
V        9.08392000      -0.00982000       2.98404000      -0.00052600       0.00055900      -0.00092500
V       10.61876000       1.54019000       1.50146000      -0.00004000      -0.00033500      -0.00025300
V       -3.02960000       3.06180000       3.09295000      -0.00003500      -0.00010000       0.00022800
V        5.93228000      -3.16616000       9.02632000      -0.00022700       0.00060400       0.00003400
V        1.53147000       7.61037000      -1.48727000      -0.00037800       0.00031900       0.00052500
V        3.08233000       9.08429000      -3.03860000       0.00045200       0.00018100       0.00018400
V        6.09073000       9.01236000      -3.11596000      -0.00054300      -0.00024400       0.00056900
V        1.53977000       4.39006000       1.51318000      -0.00015800       0.00030800      -0.00013300
V        3.02283000       6.03596000      -0.03492000       0.00019100      -0.00000700      -0.00013000
V        4.60336000       7.59396000      -1.50048000       0.00084300       0.00050800       0.00033000
V        7.54712000       7.57185000      -1.55112000       0.00002100       0.00013600      -0.00015400
V        1.50217000       1.49421000       4.46758000       0.00030700      -0.00022800       0.00059300
V        3.07334000       2.94661000       2.97195000       0.00016600      -0.00004700      -0.00024900
V        4.50033000       4.57240000       1.44673000      -0.00030500      -0.00019100       0.00053500
V        6.07120000       6.05897000      -0.01668000      -0.00005000       0.00007600      -0.00029500
V        1.45919000      -1.47113000       7.38310000       0.00050300       0.00008000      -0.00007400
V        2.99093000       0.02105000       6.02433000       0.00008000       0.00038600       0.00009900
V        4.48079000       1.48151000       4.54694000      -0.00000300       0.00079900      -0.00022800
V        7.57488000       4.63467000       1.47774000      -0.00028400      -0.00035300       0.00019800
V        4.46973000      -1.51258000       7.52176000      -0.00018900      -0.00006200      -0.00023500
V        6.00586000       0.01818000       5.98178000       0.00053200      -0.00005900       0.00000500
V        7.57099000       1.46303000       4.52426000      -0.00061300      -0.00028400      -0.00117200
V        9.08428000       2.88278000       3.00619000      -0.00003500      -0.00031500      -0.00092500
V        2.97925000      -2.96445000      12.05723000       0.00065600       0.00029400       0.00038000
V       -2.91408000       5.99401000       3.04861000      -0.00010500       0.00023500       0.00000200
V        5.80646000       0.07292000       8.95027000       0.00042500      -0.00036300       0.00042600
V        7.51486000       1.52553000       7.51791000       0.00024700      -0.00000600      -0.00044800
V       -2.96925000       3.00754000       6.01858000       0.00007100      -0.00004800       0.00052500
V        1.67250000       7.64721000       1.49297000      -0.00056400      -0.00037700      -0.00003100
V        3.05420000       9.08206000      -0.02856000       0.00021600       0.00022000      -0.00055800
V        6.04535000       8.99172000       0.04063000      -0.00026700      -0.00026900       0.00014800
V        3.05118000       6.05058000       2.94888000      -0.00006200       0.00009000       0.00004400
V        4.56494000       7.55136000       1.49115000       0.00035400      -0.00012800       0.00073400
V        7.68144000       7.42603000       1.58037000       0.00027000       0.00008100       0.00065100
V        1.49966000       1.43655000       7.59911000       0.00009700       0.00010800       0.00015400
V        3.04563000       2.96190000       6.08838000      -0.00011800       0.00014300       0.00022500
V        4.50404000       4.59548000       4.55740000      -0.00024200      -0.00012400      -0.00067100
V        5.98612000       6.06546000       2.98254000       0.00009000       0.00060400       0.00045200
V        7.75062000       4.73547000       4.34977000       0.00070300       0.00099200      -0.00086200
V        2.93947000      -0.04892000       9.11962000      -0.00012500       0.00045200      -0.00012000
V        4.47922000       1.51771000       7.51300000      -0.00056100       0.00005800      -0.00041900
V        6.03210000       3.04819000       5.98896000       0.00054100       0.00066300      -0.00011400
V        1.42533000      -1.46047000      13.61585000      -0.00026900       0.00024200      -0.00033600
V        2.85420000      -0.07597000      11.99821000      -0.00071600      -0.00004400      -0.00019800
V        4.38929000       1.56483000      10.51020000      -0.00063300      -0.00042400       0.00003700
V        5.96575000       3.09051000       8.96009000       0.00036400      -0.00023900       0.00008900
V        7.51998000       4.56740000       7.47885000       0.00032900      -0.00012000      -0.00052900
V       -3.08792000       6.01485000       6.06162000       0.00034300       0.00016200       0.00031700
V        1.53077000      10.60861000       1.51932000      -0.00020100       0.00004400       0.00010100
V        4.48961000      10.42673000       1.57450000       0.00009100      -0.00010400       0.00044000
V       -1.61002000       4.51120000       7.64618000      -0.00015100      -0.00013700       0.00025700
V       -0.09241000       5.80116000       6.09659000      -0.00026700      -0.00020000      -0.00038900
V        1.66349000       7.60306000       4.48067000      -0.00017800      -0.00016200      -0.00053400
V        6.09142000       9.00544000       3.02733000      -0.00001000      -0.00010400       0.00012900
V       -0.02902000       2.92816000       9.04486000       0.00018000      -0.00031200       0.00031400
V        1.51344000       4.54580000       7.59976000      -0.00035300      -0.00018200       0.00020200
V        3.15483000       6.02305000       5.98143000       0.00002500      -0.00014500      -0.00013300
V        4.55670000       7.58292000       4.49251000      -0.00010800       0.00003500       0.00010200
V        0.01657000      -0.01783000      12.04785000       0.00010800       0.00098300       0.00073800
V        1.46961000       1.56652000      10.56986000      -0.00055100      -0.00014100      -0.00005900
V        2.96015000       3.02606000       9.03334000       0.00005000       0.00002000       0.00047400
V        4.53472000       4.55980000       7.51854000       0.00003500      -0.00011100      -0.00020300
V        6.06623000       6.07879000       5.98082000       0.00039400       0.00022600       0.00009100
W        9.03932000       3.02721000       5.96220000       0.00126100       0.00155400       0.00262300
Zr      -1.45273000       7.66146000       4.67237000      -0.00044400      -0.00001500      -0.00007100
