127
Lattice="11.704399053409029 0.0008083397555309771 0.0004642799452775858 0.0008084012019151772 11.705913887344366 0.0012991646523473062 0.0004642776101685465 0.0012990500267091095 11.706916941412393" Properties=species:S:1:pos:R:3:energies:R:1:forces:R:3 energy=-1133.4372492152097 free_energy=-1133.4372492152097 stress="-0.01424694969621229 0.0003402076645140458 -0.0003019994446956812 0.0003402076645140458 -0.012452466336022634 0.0004731903183348412 -0.0003019994446956812 0.0004731903183348412 -0.014458881998441229" pbc="T T T"
Cr       2.95654067       8.80217539       0.02559861      -7.24367724      -0.07456273       0.04336066      -0.04519276
Cr       8.83564668       2.93154887       2.89887086      -7.65537276      -0.04353147      -0.01814795      -0.01179783
Ti       2.92351862       5.89752848       8.76025810      -7.96268540       0.01657857      -0.00075550       0.05618567
Ti       8.74693387       0.06591009       8.66322691      -7.87156475      -0.00525112       0.08944119       0.11588939
V       -0.01541881       0.09763722       0.03722730      -8.78835766      -0.09565298       0.01526255      -0.05652330
V        1.51682955       1.51649424       1.47576057      -8.80252487      -0.06074946       0.02301234      -0.06793799
V        0.01966110       0.08796860       2.94510164      -8.76786873       0.01123928      -0.04578139       0.02277207
V        1.44911510       1.50872632       4.38226905      -8.93128333       0.02262801       0.07518637       0.02239536
V        0.00268438       0.04387019       5.86821177      -8.93764263      -0.00808745       0.01703489      -0.06551156
V        1.45733354       1.51926605       7.31523108      -8.95669055       0.03639140      -0.01958599      -0.00912776
V        0.00362465       0.04811299       8.75447475      -8.88959347       0.04201611      -0.00339298      -0.05288315
V        1.45512727       1.52547767      10.25368585      -8.97608161      -0.06213731      -0.04439783       0.02890042
V       -0.02165248       2.95644509       0.04110643      -9.23329913       0.04117959       0.03301257      -0.02643343
V        1.47124539       4.41829865       1.47108834      -9.22690691      -0.01051623       0.04966233      -0.03233507
V       -0.01424276       2.95406319       2.90939124      -9.28001092      -0.01749453       0.04290565       0.00117675
V        1.45854236       4.42859385       4.38492659      -8.99997638       0.01220562       0.01237529       0.01424117
V       -0.00379529       2.97906966       5.85575586      -8.96629124       0.02038137       0.03970472      -0.00168975
V        1.45466067       4.44283601       7.30995720      -8.99425127       0.02074916      -0.00508881       0.04872560
V       -0.00948211       2.98991380       8.77738790      -8.95287865       0.08194078       0.04392886      -0.03434522
V        1.45206038       4.43321999      10.23765919      -8.99993902       0.01484629       0.04491187       0.02450431
V       -0.01085665       5.88927255       0.01586506      -9.44754778       0.00320364       0.05668681      -0.04254482
V        1.48661674       7.34575942       1.46783809      -9.07485809      -0.04512655       0.02240555       0.06619867
V       -0.00267168       5.89172250       2.92177908      -9.43654139       0.02386954       0.00868330       0.03435684
V        1.45394238       7.35937775       4.38462658      -8.96501999       0.09612132      -0.09212214       0.09896571
V       -0.00163966       5.89329375       5.85196290      -9.34893321      -0.00412572      -0.01212395       0.02244211
V        1.46344288       7.35037388       7.31312306      -9.19522396       0.00099988      -0.02286219       0.03852037
V        0.00000071       5.90068296       8.80020409      -9.33061195       0.00805215       0.02178674      -0.03988372
V        1.47577748       7.34427425      10.24553893      -9.08520539      -0.05180161       0.01679841      -0.04085217
V        0.05485020       8.81143114      -0.01705678      -9.02440828      -0.11289047      -0.01369326       0.15896155
V        1.52404397      10.30521365       1.46477969      -9.07284549      -0.17942400      -0.11250239       0.06885051
V        0.06812790       8.76540114       2.99984413      -8.90192263      -0.24925943       0.23784610      -0.22704691
V        1.47118224      10.30300655       4.40646266      -8.90862910       0.00465213      -0.08726039       0.01405433
V        0.00238493       8.82522053       5.86724814      -9.35287875       0.00204773      -0.03229047      -0.01591880
V        1.47207564      10.28895552       7.31707181      -9.01514150       0.01089175       0.02200497      -0.02389908
V        0.02914914       8.79913405       8.76426130      -9.42453284      -0.08245824       0.05023699       0.03391423
V        1.48925517      10.29644970      10.25701956      -9.08734470      -0.05076914       0.00850496      -0.09107240
V        2.94297597       0.06112354       0.01389316      -9.03571299      -0.12326863      -0.00418143       0.00316434
V        4.37806309       1.52837071       1.46946943      -8.93119472      -0.01477062      -0.00308299      -0.02022126
V        2.94627143       0.04673749       2.94532376      -8.97679578      -0.03823636       0.01485698      -0.03853288
V        4.39153628       1.51638263       4.38923166      -8.91660246      -0.01121620      -0.00280103       0.02290208
V        2.92436997       0.05316106       5.83398138      -8.93785135      -0.00640963      -0.01152439      -0.01499510
V        4.36397233       1.52010632       7.28838761      -8.95933395       0.02212175      -0.01183535       0.07137809
V        4.35567203       1.52424319      10.23281372      -8.97601106       0.04316825       0.04051879      -0.08082737
V        2.91612195       2.98717848      -0.00060111      -8.95128434       0.02720406       0.02770265       0.00104562
V        4.38543387       4.45692186       1.46506857      -8.92537707       0.03283640      -0.03386371       0.01074273
V        2.92944831       2.97740569       2.93014965      -8.91605287       0.01259335       0.03470046       0.02156963
V        4.38225265       4.43978789       4.38256125      -8.92590653       0.03305166       0.00748472       0.02702901
V        2.91416327       2.97815519       5.83554233      -8.94933131       0.03367412       0.00512308       0.03360757
V        4.37534287       4.44838780       7.30770857      -8.92427170      -0.00496778       0.02540673      -0.00568088
V        2.90690336       2.99880881       8.77309403      -8.92559877       0.02178356       0.01931716      -0.01484015
V        4.36995808       4.46810580      10.22917084      -8.91817052       0.03869088      -0.04335242       0.01961600
V        2.93080269       5.88673940      -0.00005085      -9.01353749      -0.02335034       0.04647316      -0.00239666
V        4.41219552       7.35489452       1.47995569      -9.01874803      -0.03856228      -0.01075503      -0.03740387
V        2.92887104       5.89499139       2.92814804      -8.97566998       0.02300790      -0.01198190       0.00451763
V        4.39124599       7.35516908       4.39610134      -8.92251202       0.02857916      -0.00914993       0.00193409
V        2.91207966       5.90121612       5.83787306      -8.90675938       0.06459353      -0.03138786       0.08125431
V        4.38423797       7.35263717       7.30812344      -8.92981841       0.04248905       0.02097911       0.05378387
V        4.40355311       7.35532464      10.23221666      -9.02132320      -0.00795828       0.01957938       0.03274895
V        4.36580427      10.27912889       1.48266450      -9.04790962       0.05456124       0.01546353      -0.06117431
V        2.94288687       8.82517165       2.94598085      -9.05856004      -0.00874426      -0.03435180      -0.00088260
V        4.39761286      10.28864548       4.40590922      -8.91537687      -0.05356259      -0.01269886      -0.01895592
V        2.92189726       8.82382134       5.84515034      -8.95092778       0.04033288      -0.01079524       0.05266865
V        4.37703615      10.28639647       7.29972292      -8.96355801       0.04051302       0.01700590       0.05764846
V        2.93459456       8.80700586       8.77264536      -9.04111953      -0.02959510      -0.00720422       0.00167918
V        4.38190514      10.29256211      10.23025743      -9.06247159      -0.03294669       0.01322835       0.03628809
V        5.77418059       0.06270604      -0.01195479      -9.00233768       0.00893559       0.12555005      -0.04231818
V        7.24949704       1.50432738       1.43886278      -8.89218889      -0.17863700       0.31581836       0.03499775
V        5.83600679       0.04974886       2.94416332      -8.95310289      -0.09531526       0.01458095       0.02221072
V        7.32438016       1.52009648       4.38014530      -9.03656165       0.02930236      -0.05544811      -0.06691058
V        5.84231798       0.04981729       5.83749306      -8.95249329       0.00123467       0.01288756      -0.01593176
V        7.29316192       1.52012854       7.27754854      -8.93431820      -0.03379398       0.08209476       0.05597235
V        5.82970221       0.04038565       8.73768869      -8.90862773      -0.06237373       0.11963837      -0.00865445
V        7.19041117       1.65010650      10.13124188      -8.91218693       0.40164606      -0.49156410       0.30282221
V        5.80689644       3.02564327       0.01837885      -8.92676431       0.06062778      -0.07025771      -0.19683565
V        7.31430929       4.42583204       1.47680021      -9.28959599      -0.02229702       0.06353639      -0.04113735
V        5.84763256       2.98162557       2.92183025      -9.03044606      -0.03781650       0.02171662       0.05768783
V        7.32006674       4.42326222       4.37756718      -9.10750774       0.01379308       0.05755529       0.02907229
V        5.84579775       2.97995192       5.83297890      -8.97639272      -0.00182302       0.02796263       0.01993351
V        7.30764410       4.46320694       7.30230985      -8.98161345      -0.00508418      -0.01794748       0.02831462
V        5.80983885       3.02123125       8.74057734      -8.91820650       0.11831655      -0.06748697       0.10024041
V        7.31986362       4.46805961      10.24771860      -8.99914274      -0.04548369      -0.04800123      -0.04791270
V        5.88178080       5.92264839       0.00008905      -9.01731905      -0.06339057      -0.01975929       0.02228104
V        7.36325714       7.40947160       1.45304731      -8.98033218      -0.10285966       0.06449761       0.01212797
V        5.86642528       5.90414825       2.92416031      -8.97862000      -0.02455069       0.00557577       0.02142970
V        7.31945417       7.35055678       4.41278995      -8.97382304      -0.05011701       0.01873587      -0.07047612
V        5.84809520       5.89942782       5.84737666      -8.93792744       0.03263687       0.00132493       0.01505633
V        7.30961160       7.36000255       7.32662223      -9.19479312       0.04432213       0.02505843      -0.01425066
V        5.85750653       5.92150282       8.78535765      -8.91334135      -0.00792149      -0.00819936      -0.00681948
V        7.36170339       7.39671190      10.28341477      -8.96375341       0.00656180       0.07898040       0.01010537
V        5.83737776       8.81952509       0.00427808      -8.99835789       0.11773174       0.07737484       0.05218761
V        7.17883869      10.32165246       1.54811670      -8.80316767       0.53917962       0.34084659      -0.18600461
V        5.83907441       8.80299030       2.96629288      -8.97663017       0.01500862       0.05708657      -0.07287619
V        7.32280409      10.29199158       4.41794229      -8.94380231      -0.07035208      -0.01000904      -0.03960109
V        5.85087916       8.82026017       5.85868588      -8.92664630       0.00750543      -0.01621627      -0.00825276
V        7.29576286      10.28462993       7.29528463      -8.98240222       0.03918741      -0.02698444       0.00264049
V        5.85887232       8.82437900       8.77697978      -9.02177989      -0.06680606      -0.08643755      -0.04354303
V        7.27399167      10.29841983      10.20038917      -8.86166765      -0.17921315       0.32405238      -0.25952669
V        8.80062590       0.06229754       2.92889379      -8.81714252      -0.03487240       0.00672692      -0.11644046
V       10.24408456       1.51273416       4.45857040      -8.88966632      -0.06102436      -0.00387593      -0.07589578
V        8.76436694       0.05297507       5.87072927      -8.95181680       0.03505510      -0.00382142      -0.17664241
V       10.23628591       1.52736921       7.30826253      -8.93768923       0.04811506       0.01584867      -0.05915971
V       10.23430897       1.52708027      10.16776400      -8.79862651       0.02067938       0.29337817      -0.27902406
V        8.80619645       2.99606035       0.02081339      -9.30763757      -0.13091425       0.06621113      -0.09434771
V       10.24761279       4.42415635       4.40343533      -9.38279291      -0.01144921       0.03940425      -0.00669465
V        8.76658795       2.98695691       5.85253633      -9.05885595       0.03409957       0.02910534      -0.00688034
V       10.24112555       4.45673377       7.32032558      -9.21814683       0.00592391      -0.01398659       0.01771619
V        8.78671850       3.01519855       8.73809892      -8.87277469      -0.19594793       0.02382665       0.02670076
V       10.25259050       4.43336070      10.23985114      -9.26902037      -0.02419000       0.04712800      -0.00671918
V        8.79242428       5.84480874       0.01571946      -9.23361790      -0.00623256       0.26707634      -0.03193995
V       10.21861113       7.38922556       1.44203629      -9.24354251       0.11454985       0.19137042       0.11194030
V        8.78805499       5.89735504       2.93078247      -9.48892494      -0.02771581       0.05223991      -0.01453944
V       10.23510885       7.35079627       4.42506251      -9.26206460       0.06660908       0.02897787      -0.05894128
V        8.77361198       5.88972344       5.86233463      -9.37833211      -0.01022020       0.05454878      -0.04529864
V        8.77499585       5.92205768       8.80939392      -9.35662827       0.02350014      -0.01512905      -0.07524938
V       10.22297323       7.40165228      10.28441959      -9.24740106       0.02539345       0.07507159      -0.08564502
V        8.89210785       9.55333374       0.13437507      -8.33507506      -0.37676345      -3.02444914      -0.49084151
V       10.43442134      10.21009322       1.66035959      -8.45336366      -0.41099849       0.70087846      -0.44619707
V        8.75838179       8.81440853       3.00314470      -8.91799188       0.14952686      -0.00936581      -0.13838403
V       10.23821078      10.30225232       4.45386604      -9.03318058       0.06226149      -0.09112691      -0.17188329
V        8.77274760       8.81130903       5.87391499      -9.36946476      -0.01952472       0.03865701      -0.08127167
V       10.24549377      10.27751001       7.29448901      -9.21606879      -0.00774426      -0.03858067      -0.01891322
V        8.77506086       8.82993569       8.74972441      -9.26616299       0.03837817       0.02502805       0.11604464
V       10.32529251      10.31683346      10.10353887      -8.88481415      -0.18011817       0.32703477       0.51389186
W       10.26405210       4.49346115       1.47461165      -6.74865584      -0.04096497       0.01317159      -0.06587137
W       10.24431021       7.35611861       7.32775714      -6.63035125      -0.01971476       0.01316732      -0.00619092
Zr       2.91501036       0.06336839       8.76782285      -7.89868885       0.00810258       0.00759571       0.01553997
Zr       8.60426971       0.30828328      -0.29369984      -7.56657089       1.05627833      -0.56629598       1.86138185
