127
Lattice="11.704399053409029 0.0008083397555309771 0.0004642799452775858 0.0008084012019151772 11.705913887344366 0.0012991646523473062 0.0004642776101685465 0.0012990500267091095 11.706916941412393" Properties=species:S:1:pos:R:3:energies:R:1:forces:R:3 energy=-1135.916781000725 free_energy=-1135.916781000725 stress="-0.0021592946847849037 2.1690641813208463e-05 0.00011571630705727772 2.1690641813208463e-05 -0.0017821929915167872 -9.713219027928745e-05 0.00011571630705727772 -9.713219027928745e-05 -0.0024460211776312826" pbc="T T T"
Cr       2.92956098       8.78006208       0.02256294      -7.26387261      -0.00417888       0.00042015       0.00221742
Cr       8.77853813       2.93697526       2.94652261      -7.54465051      -0.00877387       0.01065184       0.00494488
Ti       2.92871785       5.85391598       8.76844710      -7.96745652       0.00126897      -0.00300984       0.00262347
Ti       8.77529709      -0.00685796       8.75300861      -7.93718224      -0.00364925      -0.00446803       0.00539891
V        0.00891348      -0.00764865       0.00244137      -9.01096872      -0.02848591       0.00070227       0.00624513
V        1.46255427       1.46952797       1.46664260      -8.99294571      -0.01174122       0.00145760      -0.00017224
V        0.00462507      -0.00747939       2.92800914      -8.98772990      -0.00353745      -0.00054514      -0.00424576
V        1.45833283       1.46913825       4.38854069      -8.92906741      -0.00010198      -0.00105621      -0.00092887
V       -0.00529165       0.00300272       5.84531736      -8.94729904       0.00155460       0.00047870      -0.00527154
V        1.46216955       1.46863385       7.31279595      -8.97230970      -0.00093699       0.00035290      -0.00174055
V       -0.02033491      -0.00440505       8.77581034      -8.93964664      -0.00205459      -0.00080428      -0.00310767
V        1.46206100       1.47315582      10.23592492      -8.96902981      -0.00673096       0.00003861       0.00064449
V        0.00828074       2.93621262       0.00166374      -9.39861465       0.00499314       0.00737345      -0.00882009
V        1.47792261       4.39043865       1.46390832      -9.21430505       0.00025790       0.00071138       0.00047945
V       -0.00031110       2.92841606       2.92261054      -9.47984783       0.00308663      -0.00045446       0.00173686
V        1.46450984       4.39353418       4.39018848      -8.99527418       0.00008222      -0.00019869       0.00024809
V       -0.00046714       2.93266172       5.85031143      -8.97986230       0.00151147       0.00020466      -0.00379804
V        1.46380780       4.39755783       7.31628607      -8.99385578       0.00027611      -0.00079794       0.00044057
V       -0.00251210       2.93840067       8.77830038      -8.96072912      -0.00273597      -0.00260098      -0.00006775
V        1.46405790       4.39564397      10.23476795      -8.99571638       0.00040690       0.00026240       0.00000453
V       -0.01766407       5.85651403       0.00220786      -9.44271939      -0.00087584      -0.00107694       0.00139694
V        1.46228893       7.31020450       1.47847250      -9.08470843      -0.00224212       0.00111944      -0.00135159
V       -0.00271672       5.86068887       2.91929298      -9.40842354      -0.00149034      -0.00263996      -0.00149756
V        1.46001321       7.31569789       4.38913519      -8.99796061       0.00239142      -0.00245427       0.00268582
V        0.00130347       5.85280777       5.84700486      -9.35512580      -0.00075843      -0.00074257       0.00006624
V        1.46089116       7.31064379       7.31233580      -9.20373672       0.00184993      -0.00215473       0.00240126
V       -0.00104988       5.85971172       8.78756490      -9.32488666       0.00109373      -0.00205478       0.00155744
V        1.46453417       7.30532258      10.23475976      -9.08742426      -0.00005612      -0.00032534       0.00375465
V        0.05275430       8.77337922      -0.00146100      -8.88087277      -0.00866225       0.00478756      -0.00267799
V        1.46766792      10.24818644       1.47673773      -9.01310661      -0.00468975       0.00319111      -0.00147242
V       -0.00851793       8.77975024       2.92451495      -8.98882644       0.00096003      -0.00325644       0.00012570
V        1.45879687      10.24637539       4.39329593      -8.92907844      -0.00072399       0.00186667      -0.00190627
V        0.00660745       8.78362600       5.84773344      -9.33583543       0.00005420      -0.00024991      -0.00036156
V        1.46469319      10.25324272       7.31263880      -9.03467890       0.00153628      -0.00111039       0.00084780
V       -0.01239110       8.77802914       8.78519887      -9.43896884       0.00255211      -0.00436306      -0.00300044
V        1.46612590      10.25790087      10.23270352      -9.04595157      -0.00874588       0.00013265       0.00324403
V        2.92687263       0.01742869       0.01775169      -9.05801992      -0.00865292       0.00023543       0.00029281
V        4.38772859       1.47397653       1.46675547      -8.92815675      -0.00438921      -0.00264332      -0.00148454
V        2.92478057       0.00681432       2.93024593      -8.99054200      -0.00463821       0.00144044       0.00009127
V        4.38554136       1.46833490       4.39197627      -8.92625005      -0.00149326       0.00013374      -0.00152694
V        2.92335057       0.00835713       5.82903464      -8.93779259       0.00077568      -0.00025444       0.00073340
V        4.38392511       1.46922257       7.31309506      -8.97067736       0.00110716      -0.00200835      -0.00014431
V        4.38919256       1.47605559      10.23662852      -8.96779767      -0.00179936      -0.00465321       0.00063511
V        2.92412980       2.93266795       0.00377947      -8.96042613      -0.00532937      -0.00267512       0.00136511
V        4.38594914       4.39455295       1.46419840      -8.93803249      -0.00173405      -0.00300094       0.00044591
V        2.92320128       2.92928066       2.92817884      -8.93229094      -0.00447490      -0.00068358       0.00028417
V        4.38534353       4.39604352       4.39067143      -8.92907578      -0.00075571      -0.00075184       0.00010253
V        2.92411803       2.93378097       5.84447769      -8.95216390      -0.00000289      -0.00065854       0.00011920
V        4.38520738       4.40150427       7.31749200      -8.92770140      -0.00022910      -0.00251320       0.00105863
V        2.92561168       2.95128420       8.77533277      -8.92056189      -0.00174076      -0.00256296       0.00207244
V        4.38643633       4.40112520      10.23456457      -8.92962312       0.00138091      -0.00620093       0.00314299
V        2.92495422       5.84510735       0.00012871      -9.01530598      -0.00010766      -0.00168428       0.00284892
V        4.39012034       7.31122811       1.47703443      -9.01567905      -0.00063641      -0.00224849       0.00177138
V        2.92453710       5.85344355       2.93116872      -8.97590882      -0.00000177      -0.00065119       0.00024020
V        4.38914962       7.31758910       4.39208153      -8.93245430       0.00177930      -0.00178502       0.00266957
V        2.92411624       5.85500100       5.85212414      -8.90677291       0.00024054      -0.00086739       0.00102593
V        4.38844635       7.31263755       7.31441013      -8.92811302       0.00072043      -0.00349285       0.00141152
V        4.38920041       7.30964693      10.23304129      -9.02021927      -0.00043659      -0.00382205      -0.00047393
V        4.38548480      10.25081959       1.47718986      -9.01169040      -0.00529039      -0.00078140      -0.00075745
V        2.92626875       8.78301750       2.94296185      -9.03862649       0.00011442       0.00097963       0.00077000
V        4.38958199      10.24734053       4.39439092      -8.93054866       0.00055368      -0.00065912       0.00105612
V        2.92275937       8.77966763       5.84685528      -8.95986123       0.00156474      -0.00015157       0.00177360
V        4.38678379      10.25203036       7.31197181      -8.97293332       0.00056353      -0.00382658      -0.00025987
V        2.92498641       8.76906213       8.77000956      -9.03519937      -0.00035853      -0.00277963       0.00252601
V        4.38868804      10.25899332      10.23206284      -9.04880854      -0.00306183      -0.00315455      -0.00224246
V        5.83955888      -0.00114117       0.00701004      -9.01652960       0.00734478      -0.00544620      -0.00572817
V        7.30306283       1.45733158       1.45957013      -9.12626941       0.00736246      -0.00944603      -0.00311705
V        5.84338205      -0.00499289       2.92904683      -8.98994062      -0.00336267      -0.00138646      -0.00173285
V        7.30719506       1.46771549       4.39392689      -9.03055032       0.00041124      -0.00073130      -0.00466486
V        5.85127381       0.00732977       5.84378604      -8.94593248       0.00079364      -0.00172427      -0.00288243
V        7.30857776       1.47503118       7.31350841      -8.91842223       0.00007897      -0.00418341      -0.00260906
V        5.86819556       0.00059218       8.77560305      -8.93748265       0.00147358      -0.00438127      -0.00027880
V        7.31334523       1.46660051      10.24473157      -8.97456138       0.01300213      -0.02113826       0.00791487
V        5.83867781       2.94228355      -0.00098647      -8.97350557       0.00232566      -0.00894418      -0.00108859
V        7.29448565       4.39209588       1.46755133      -9.27901910      -0.00399473       0.00044406      -0.00121202
V        5.83927567       2.93108109       2.92976638      -9.03462106      -0.00184243      -0.00178143      -0.00230480
V        7.30771545       4.39867336       4.39903904      -9.08862987      -0.00257725       0.00181899       0.00153826
V        5.84760561       2.93465559       5.85353560      -8.98161798       0.00044220      -0.00179474      -0.00139798
V        7.31245115       4.40117256       7.31671263      -8.99787281       0.00167771      -0.00547803       0.00170825
V        5.85264129       2.94060527       8.77739857      -8.96360047      -0.00155067      -0.00501048      -0.00191598
V        7.30842457       4.39446047      10.23316453      -8.97331165      -0.00160220      -0.00430555      -0.00209808
V        5.86761197       5.86600720      -0.00126345      -9.00851790      -0.00043877      -0.00292595       0.00063829
V        7.34823420       7.35589835       1.43431801      -8.81125259       0.00033910      -0.00163778      -0.00172475
V        5.85366215       5.86376359       2.92193704      -8.98111251       0.00067655      -0.00101372       0.00150067
V        7.30829259       7.31434239       4.39763545      -8.98080890       0.00340531       0.00054112      -0.00080709
V        5.85321335       5.85775389       5.85186990      -8.94111417       0.00154264      -0.00241144       0.00181954
V        7.31120431       7.31522617       7.31047029      -9.19329871      -0.00085231      -0.00285566      -0.00033145
V        5.85771293       5.86569090       8.78514874      -8.91178252       0.00067531      -0.00314820       0.00138253
V        7.35866808       7.35451740      10.27695988      -8.81091162      -0.00158157       0.00064665      -0.00139312
V        5.80254261       8.77827457       0.00156683      -8.88353685      -0.00529748      -0.00315079      -0.00634069
V        7.34607275      10.21741143       1.43610774      -8.77467641      -0.01694332      -0.00639716      -0.00537732
V        5.85956559       8.78373475       2.92438902      -8.99247419      -0.00349714      -0.00435247       0.00191317
V        7.30321811      10.24633211       4.40132376      -8.91267766       0.00134622       0.00115417      -0.00739344
V        5.84724124       8.78090669       5.85040215      -8.92141263       0.00153011      -0.00309435      -0.00074983
V        7.30353630      10.24635228       7.30428525      -8.96934178      -0.00242368      -0.00411656      -0.00421980
V        5.86681491       8.77927277       8.78399582      -9.02185265       0.00058840      -0.00078023       0.00012496
V        7.34946526      10.21853925      10.26724383      -8.78914602       0.01469950       0.00777497       0.01206125
V        8.77249382      -0.01726953       2.94362281      -9.05686661       0.00504660      -0.00017599      -0.02841563
V       10.24480991       1.46325124       4.39481774      -9.08699487       0.00070552       0.00115513      -0.01369941
V        8.77636192       0.00796153       5.85520172      -8.96928006       0.00087326      -0.00030864      -0.00828245
V       10.24587427       1.47344668       7.31452807      -8.92049848       0.00015667      -0.00109022      -0.00660859
V       10.23925793       1.46265099      10.24108240      -9.03998144      -0.00474890      -0.01165913       0.00760557
V        8.77928371       2.94654244       0.00063249      -9.50010891      -0.00503019       0.00243335      -0.00777345
V       10.24781465       4.39720603       4.40841046      -9.36961912       0.00069721       0.00166795       0.00016499
V        8.77663050       2.93298944       5.86246262      -9.07298882       0.00035581      -0.00164504      -0.00369083
V       10.24322792       4.39852335       7.31813598      -9.21966568       0.00047135      -0.00228257      -0.00131522
V        8.77737425       2.93983608       8.76554723      -8.91488193      -0.00039436      -0.00905401       0.00124538
V       10.25055599       4.39145800      10.22094869      -9.25746175       0.00013598       0.00001977      -0.00333062
V        8.78324992       5.79630591       0.00005773      -9.22870940      -0.00010866      -0.00261070       0.00034365
V       10.20838842       7.36862211       1.43119986      -9.00624382      -0.00365125       0.00421980      -0.00246825
V        8.78161958       5.86360171       2.91684681      -9.48606773       0.00092611      -0.00074661      -0.00118264
V       10.24698433       7.31782430       4.39725658      -9.26608201      -0.00232192       0.00114846      -0.00253874
V        8.77432365       5.85072413       5.85178862      -9.39113309       0.00145278      -0.00076944      -0.00024441
V        8.77652172       5.86787445       8.79205073      -9.35043387      -0.00067525      -0.00283145      -0.00015318
V       10.20859224       7.34895344      10.26729873      -9.07226311      -0.00257236      -0.00214670       0.00009474
V       10.23561738       1.42054689       1.44720629      -9.31619395       0.06164267       0.16983604       0.06342969
V       10.20782515      10.20252140       1.43607259      -8.78376446      -0.00743843       0.03164746      -0.01081027
V        8.77584246       8.77703590       2.99584676      -8.76917454      -0.00238189       0.00651336      -0.00978336
V       10.25090103      10.24562740       4.39987443      -8.98078584      -0.00044868       0.00262613      -0.00578088
V        8.77440315       8.78366345       5.85069004      -9.38260491       0.00121805      -0.00092419      -0.00573842
V       10.25048044      10.24419280       7.30472824      -9.17993474       0.00088643      -0.00249065      -0.00695274
V        8.77811258       8.78452864       8.71443625      -9.16061532      -0.00495682      -0.00240532      -0.00525691
V       10.20096077      10.21224932      10.27469458      -8.84802285      -0.00541653      -0.00462897      -0.01389181
W       10.25666031       4.39573175       1.45805283      -6.78021074      -0.00034928      -0.01384084      -0.00118873
W       10.24443400       7.31886422       7.31015185      -6.65187584       0.00048345      -0.00258861      -0.00214963
Zr       2.92600821       0.01942536       8.76765899      -7.89037196      -0.00277905      -0.00171184       0.00104427
Zr       8.76262578       0.05022118      -0.01771348      -7.71425899       0.06809907      -0.00576671       0.07590357
