127
Lattice="11.704399053409029 0.0008083397555309771 0.0004642799452775858 0.0008084012019151772 11.705913887344366 0.0012991646523473062 0.0004642776101685465 0.0012990500267091095 11.706916941412393" Properties=species:S:1:pos:R:3:energies:R:1:forces:R:3 energy=-1133.6399403736932 free_energy=-1133.6399403736932 stress="-0.010873232789641472 0.0011297714603635024 0.0007268498756488595 0.0011297714603635024 -0.009438717921114904 0.0012188731424125994 0.0007268498756488595 0.0012188731424125994 -0.011601142193307453" pbc="T T T"
Cr       2.94825680       8.79893660       0.03280284      -7.24189248      -0.08299705       0.03045844      -0.05500712
Cr       8.80105631       2.90429909       2.88991462      -7.66235772      -0.08901010      -0.07115830      -0.00391763
Ti       2.91930567       5.88942211       8.75525572      -7.96347190       0.02197477      -0.01537817       0.05558657
Ti       8.76229158       0.03975305       8.66351258      -7.88698083      -0.01338472      -0.00990516       0.08245887
V        0.02499666      -0.02322153      -0.06285453      -8.89634161       0.11958480      -0.20754499      -0.19345153
V        1.45674511       1.47784367       1.46285591      -8.89317301      -0.07507213      -0.03631418      -0.08554780
V       -0.00829989      -0.00746774       2.91696843      -8.97886193       0.03961627      -0.15194494       0.04528749
V        1.44718792       1.49391906       4.37856836      -8.93540453      -0.00802910       0.04187712      -0.00508160
V       -0.00415166       0.03406021       5.84853925      -8.94621672      -0.02792033       0.00986429      -0.08145429
V        1.45137366       1.51075288       7.30564067      -8.96625263       0.01635856      -0.02165951      -0.02860041
V       -0.01047456       0.03345520       8.74681079      -8.93755242      -0.00555911      -0.01357786      -0.04350880
V        1.45544566       1.51319812      10.22856220      -8.97425257      -0.04357002      -0.04106712      -0.03821551
V       -0.04935064       2.91068338       0.01685354      -9.39280770       0.00310549      -0.04396539      -0.06008076
V        1.46163889       4.39773045       1.46571724      -9.22550321      -0.01526724       0.01642909      -0.04353867
V       -0.03844007       2.90945465       2.88459965      -9.38581301      -0.04481990       0.00680853      -0.01916076
V        1.44908264       4.41305961       4.37470440      -9.00103321       0.00371996      -0.00754727       0.00714719
V       -0.01345455       2.95949625       5.83833812      -8.96925938       0.01606560       0.01640431      -0.00304144
V        1.45031891       4.43490250       7.30243626      -8.99558560       0.02259587      -0.02212971       0.04173852
V       -0.01245498       2.97876316       8.76829320      -8.95469988       0.02454027      -0.01516449      -0.02211124
V        1.44773502       4.41539793      10.23571560      -9.00124139       0.00673024       0.01985966       0.00126056
V       -0.01239206       5.86744783       0.01136031      -9.43793011      -0.02767576       0.00132321      -0.06425086
V        1.47989995       7.33118499       1.47298924      -9.07571423      -0.04749014      -0.01552842       0.05017040
V       -0.00451523       5.87726827       2.91864790      -9.41051076       0.00706943      -0.03273086       0.01422714
V        1.44830430       7.35245666       4.37824188      -8.98299054       0.08459446      -0.10100373       0.08347038
V       -0.00273827       5.88273996       5.84412257      -9.35192636       0.00046525      -0.03047958       0.01097293
V        1.46051139       7.34513656       7.30691809      -9.20304006       0.00782528      -0.04240730       0.02508821
V       -0.00256689       5.88895104       8.79612493      -9.33175414      -0.00096228      -0.01703731      -0.03934639
V        1.47752891       7.32844529      10.24116981      -9.08110126      -0.04965396      -0.01731927      -0.05193514
V        0.07650536       8.78432764      -0.02174576      -8.86240215      -0.02084454      -0.08504347       0.11229452
V        1.48232364      10.27707174       1.47203687      -9.01789408      -0.12307805      -0.15628739       0.05429418
V        0.02023525       8.77196160       2.94925220      -8.96398436      -0.15601027       0.11942659      -0.12644469
V        1.45680628      10.28463364       4.39162336      -8.92353805       0.01158078      -0.07931891       0.02145268
V        0.00413282       8.81821979       5.85560019      -9.34034889       0.00927580      -0.05373017      -0.04190409
V        1.46673420      10.28397720       7.31407020      -9.02777821       0.00523899       0.02468975      -0.06270544
V        0.01000591       8.79599670       8.77450669      -9.42771223      -0.09475599       0.02124799      -0.00697919
V        1.48565758      10.28672047      10.24122233      -9.04871666      -0.01379125      -0.00547778      -0.13879891
V        2.93347191       0.05310443       0.01990479      -9.06219704      -0.08451809      -0.01891723      -0.01977412
V        4.37273213       1.51789615       1.46910514      -8.92713919      -0.00750417      -0.02718696      -0.02520555
V        2.92700089       0.03792003       2.93648855      -8.98788324      -0.06566804       0.00287043      -0.05231068
V        4.38193837       1.50722718       4.38222455      -8.92611188      -0.03429200      -0.00677782       0.01441518
V        2.91644176       0.04623438       5.82571439      -8.93848721      -0.01001533      -0.01020722      -0.01751196
V        4.36356656       1.51601873       7.28834538      -8.95804360       0.01573310      -0.02526064       0.06036054
V        4.35996565       1.51984992      10.23737505      -8.97636530       0.04328669       0.01247743      -0.09916736
V        2.90229550       2.96580110       0.00203871      -8.95331146       0.01890562       0.00094260      -0.00490946
V        4.37880319       4.43856847       1.45958897      -8.93055262       0.02336760      -0.06510204       0.01290988
V        2.91257144       2.95705711       2.91819712      -8.92267677       0.00438161       0.01117802       0.01934924
V        4.37500272       4.43208166       4.37699427      -8.92554798       0.02187557      -0.01012274       0.02784319
V        2.90839922       2.97236768       5.82855952      -8.94698318       0.02773870      -0.00721994       0.02817668
V        4.37055226       4.44144655       7.30332543      -8.92650800      -0.00040889       0.01208762       0.00305187
V        2.90484229       2.99098227       8.77035748      -8.92199930       0.02389545       0.00573071      -0.03125430
V        4.36833810       4.45043500      10.22600055      -8.92517642       0.02873862      -0.05271157       0.01909382
V        2.92644408       5.86901187      -0.00093224      -9.01169733      -0.02535628       0.01319974      -0.00978853
V        4.40388525       7.34081314       1.48460075      -9.00808000      -0.07246124      -0.05093693      -0.04081128
V        2.92120690       5.88341885       2.92650187      -8.97615081       0.01481342      -0.02911095       0.00582569
V        4.38573744       7.34975241       4.39240546      -8.92781173       0.01192675      -0.02753797       0.00754757
V        2.90642012       5.89398336       5.83194428      -8.91000115       0.06849334      -0.04770415       0.08605185
V        4.37840150       7.34783942       7.30282885      -8.93334573       0.04802955       0.02033278       0.05822611
V        4.39129522       7.34101934      10.22792985      -9.01873759      -0.01999335      -0.01411457       0.01074287
V        4.37370867      10.27656273       1.48975492      -9.02592752      -0.03129466       0.00594266      -0.06628426
V        2.93345564       8.81812021       2.94481691      -9.04750610      -0.03611885      -0.05757991       0.00204324
V        4.39386058      10.28305774       4.39959145      -8.92615502      -0.09043370      -0.00993294      -0.01994780
V        2.91397545       8.81683804       5.83772976      -8.95615167       0.04118141      -0.02189407       0.04739782
V        4.36902926      10.28349550       7.29419490      -8.96624391       0.05253501       0.01996589       0.05668076
V        2.92910256       8.80173472       8.76960898      -9.03194656      -0.00772928      -0.00976690      -0.02004467
V        4.37816939      10.29020662      10.23157785      -9.05878754       0.00172691       0.01694690       0.01239387
V        5.77481178       0.03953902       0.00043504      -9.02374581       0.03929586       0.01747883      -0.02776236
V        7.24730657       1.47793837       1.43064609      -9.10766513      -0.06885698       0.12162254      -0.02637679
V        5.82364478       0.03223463       2.93145526      -8.99582252      -0.07852824      -0.00374592      -0.01757525
V        7.29857627       1.51091108       4.38254285      -9.03179203      -0.03179685      -0.06233216      -0.04165387
V        5.83880879       0.04591719       5.83541842      -8.94578486      -0.01257722       0.00904453      -0.00246462
V        7.29776290       1.51424671       7.28324524      -8.93616158      -0.04250743       0.05566815       0.04405233
V        5.83120925       0.04109751       8.74135112      -8.90917457       0.00390712       0.05533147       0.04310666
V        7.22276028       1.57727294      10.15463778      -8.94685361       0.25335407      -0.34037212       0.22859743
V        5.81025022       3.00288002       0.00793801      -8.95462460       0.04004428      -0.08167610      -0.15535919
V        7.30587524       4.40607548       1.46967027      -9.28671635      -0.03410166      -0.01181095      -0.04619023
V        5.83774819       2.96993868       2.91696015      -9.03014811      -0.02538009      -0.02923853       0.02803573
V        7.31477356       4.41097006       4.37674365      -9.10615415      -0.00869424       0.03271606       0.01918281
V        5.84139922       2.97213379       5.83166454      -8.97593636      -0.01714260       0.01496312       0.02450241
V        7.30421604       4.44628323       7.30105336      -8.98835378      -0.00546008      -0.02656058       0.02060421
V        5.81572660       3.00386477       8.74626642      -8.93869965       0.11288522      -0.07681050       0.08497769
V        7.30907426       4.44305987      10.23908384      -8.99082707      -0.05060926      -0.09310357      -0.06834728
V        5.87749464       5.90499781      -0.00124756      -9.01878025      -0.03703299      -0.04652281       0.00696130
V        7.37044377       7.38818148       1.44665953      -8.81871173      -0.10324064      -0.01138871      -0.05526118
V        5.86172394       5.89394692       2.92020949      -8.97865070      -0.02758157      -0.02742745       0.00764564
V        7.31530143       7.33547380       4.41419919      -8.97249625      -0.06727523      -0.01273223      -0.07205650
V        5.84336575       5.89079114       5.84353093      -8.93751382       0.02596125      -0.01434630       0.02065261
V        7.30399305       7.34350464       7.31410136      -9.18743793       0.01912874      -0.00200198      -0.02847906
V        5.85003674       5.90877504       8.78007191      -8.91095600       0.00138736      -0.02523998       0.00128529
V        7.35784311       7.37545422      10.27893831      -8.81270075       0.00556784       0.02781785       0.00680646
V        5.79591880       8.79504657       0.00794303      -8.86414842      -0.03021857       0.00011938       0.02356569
V        7.23856875      10.22570757       1.47439456      -8.78342624       0.50283579       0.10304859      -0.23904421
V        5.85005797       8.80120592       2.94685577      -8.98494785      -0.00987298       0.02798264      -0.09834048
V        7.30459042      10.27782588       4.41668326      -8.90737360      -0.11576791      -0.02941264      -0.00711385
V        5.84516119       8.81407578       5.85254599      -8.91743638      -0.01377745      -0.01968815       0.01337172
V        7.29593605      10.28327998       7.28809558      -8.97861799       0.01867782      -0.02430219       0.03538293
V        5.86531573       8.82360123       8.78285686      -9.01786012      -0.01569227      -0.06101299       0.00514016
V        7.28340295      10.25148605      10.21009626      -8.70820713      -0.03256404       0.01904936      -0.07334611
V        8.70941418      -0.04106009       2.97054062      -8.89617782      -0.19618300      -0.18122220       0.11374670
V       10.23516045       1.47711740       4.40173596      -8.97368850      -0.07984411      -0.06790584      -0.08411110
V        8.77012994       0.04468899       5.86127713      -8.97817748       0.02104265      -0.01435216      -0.13568730
V       10.23738710       1.51723578       7.29954102      -8.93042803       0.03476880      -0.00981367      -0.02253159
V       10.22148550       1.49754085      10.16966864      -9.02150138      -0.03887622       0.07492847      -0.06860719
V        8.77644652       2.93285861      -0.00543923      -9.49055487      -0.10272770      -0.02357057      -0.06825796
V       10.24328792       4.40583429       4.39253715      -9.37831087      -0.02557298       0.00886310      -0.00940224
V        8.76742650       2.96740464       5.83970314      -9.06710980       0.02807984      -0.00120414      -0.00072260
V       10.23825450       4.44050539       7.31199877      -9.22131290       0.00415366      -0.05814177       0.01572908
V        8.78023599       3.00037866       8.73635587      -8.89054507      -0.14340030      -0.03540037       0.02590212
V       10.24568406       4.41301895      10.23070337      -9.26847150      -0.02711967      -0.03303423      -0.03697371
V        8.78540875       5.80924726       0.01027575      -9.23115957      -0.02840560       0.03274209      -0.05919776
V       10.21845949       7.34373480       1.44204621      -9.05724381       0.06531482       0.02631466       0.05276454
V        8.78543266       5.87502058       2.92854382      -9.48194534      -0.04962414       0.00030760      -0.05062747
V       10.24114339       7.33819894       4.41611667      -9.26447950       0.04939260      -0.01154845      -0.05819379
V        8.77359881       5.87335722       5.85799062      -9.37376877      -0.02259607       0.01529814      -0.04997602
V        8.77323739       5.90688544       8.80527558      -9.35720514       0.00976428      -0.04273798      -0.05303302
V       10.21590703       7.37799150      10.28818920      -9.07797952      -0.03240899      -0.00716966      -0.09631279
V        9.95502226       0.73441323       1.18503106      -8.38576470       1.34518492       2.89283442       1.24299665
V       10.21797071      10.02119923       1.44939210      -8.73750742      -0.40274100       0.08780748      -0.39921610
V        8.75555821       8.78906981       3.01818677      -8.74791946       0.09859098      -0.08898555      -0.01949951
V       10.24452851      10.27067831       4.41350634      -8.98191519       0.05073465      -0.14026439      -0.10646688
V        8.77785247       8.80342151       5.86666177      -9.37953152      -0.03319022       0.02350657      -0.07793700
V       10.25714150      10.27268047       7.29804913      -9.19664313      -0.03922570      -0.01790592      -0.08624472
V        8.78050792       8.80399465       8.70682915      -9.14236826       0.01016367      -0.04037118      -0.03040569
V       10.24935141      10.20929962      10.15786340      -8.85594285      -0.20233559       0.13251962       0.46068595
W       10.25053559       4.45680134       1.45688369      -6.66456224      -0.04856028      -0.08200245      -0.07667697
W       10.24846941       7.34202716       7.31894500      -6.61883029      -0.02499550      -0.03403775      -0.05627797
Zr       2.91307644       0.05867183       8.76235342      -7.88861369       0.01922489       0.00850429      -0.01270572
Zr       8.54332231       0.01063314      -0.32528636      -7.38898672       0.14573887      -0.54333275       0.63727239
