127
Lattice="11.704399053409029 0.0008083397555309771 0.0004642799452775858 0.0008084012019151772 11.705913887344366 0.0012991646523473062 0.0004642776101685465 0.0012990500267091095 11.706916941412393" Properties=species:S:1:pos:R:3:energies:R:1:forces:R:3 energy=-1136.1086404729515 free_energy=-1136.1086404729515 stress="-0.0013322124611884667 -3.499723511467733e-05 -4.782771405135e-05 -3.499723511467733e-05 -0.0015792503674241407 0.000259120892509433 -4.782771405135e-05 0.000259120892509433 -0.0014223521683258203" pbc="T T T"
Cr       2.93577124       8.75629179       0.02499865      -7.26340388       0.00056082       0.00149970       0.00175123
Cr       8.82902034       2.87769994       2.89639009      -7.64767023       0.00166973       0.00331873      -0.00206173
Ti       2.93205589       5.83393925       8.77421983      -7.97418876      -0.00056234      -0.00011507      -0.00032599
Ti       8.77499663      -0.01445690       8.75624408      -7.88360985       0.00196238       0.00108572       0.00527580
V       -0.01153384       0.02606560       0.03955174      -8.79551458      -0.00725558       0.00099281       0.00566441
V        1.51127873       1.45760566       1.47132943      -8.80104849      -0.00131285      -0.00114516       0.00191435
V       -0.02123110       0.01813741       2.90477779      -8.81439062      -0.00123954      -0.00363587      -0.00074400
V        1.45224674       1.45212657       4.38120476      -8.93859167       0.00063747      -0.00155114       0.00074947
V        0.00113159      -0.02072535       5.85205733      -8.94041162       0.00021235      -0.00090326       0.00042418
V        1.46970109       1.45090636       7.31463278      -8.96234997       0.00005770      -0.00114618       0.00158404
V       -0.00803078      -0.02137734       8.76744604      -8.92062993      -0.00031313       0.00124767       0.00245741
V        1.45476598       1.45459110      10.25138107      -8.97668276      -0.00244201      -0.00055390       0.00312872
V       -0.02197476       2.90112889       0.03165988      -9.22630910      -0.00275436       0.00187222       0.00211186
V        1.47293833       4.36481638       1.46810824      -9.22208242      -0.00020895       0.00065945       0.00103214
V       -0.01482309       2.89918547       2.90689300      -9.27106019      -0.00031510      -0.00147522      -0.00018802
V        1.46573804       4.37279530       4.39049331      -8.99712941      -0.00013341      -0.00067842      -0.00001217
V        0.00505899       2.91879301       5.85535745      -8.97047568      -0.00032303      -0.00094839       0.00036293
V        1.46861934       4.37985022       7.31948527      -8.98924004      -0.00085276      -0.00068736       0.00022309
V        0.00669211       2.92613862       8.77112189      -8.95004766      -0.00098850       0.00102957       0.00106076
V        1.46220489       4.37375444      10.24232593      -8.99675052      -0.00101778       0.00044903       0.00126308
V       -0.00871035       5.83215181       0.00744218      -9.44605703       0.00034853       0.00271590       0.00118050
V        1.46770194       7.29794006       1.47794622      -9.09607958      -0.00144234       0.00316590       0.00098168
V        0.00397187       5.83853058       2.92774223      -9.41168628       0.00063882       0.00295438       0.00071003
V        1.46339846       7.29737780       4.39430381      -8.99021727      -0.00169096       0.00196709      -0.00157240
V        0.00494001       5.83690398       5.85230721      -9.35794713       0.00012317       0.00088066      -0.00026633
V        1.46461406       7.29234479       7.31904932      -9.19815805      -0.00028603      -0.00003147       0.00004003
V        0.00628137       5.83802893       8.78846065      -9.32027609      -0.00057835       0.00091373       0.00088911
V        1.46302514       7.29082591      10.24539202      -9.09694369      -0.00047735       0.00157201       0.00195647
V        0.00528707       8.74887189       0.00034337      -9.03589517      -0.00657364       0.00501526       0.00263212
V        1.45789233      10.23532818       1.47286548      -9.04202824      -0.00618080       0.00123733       0.00118074
V        0.01058522       8.75228967       2.94457859      -8.96240165      -0.00665803       0.00852652      -0.00686861
V        1.45717370      10.23106275       4.39209608      -8.92989616      -0.00119395      -0.00128529      -0.00100221
V        0.00343116       8.76436380       5.85503695      -9.34810809       0.00040488       0.00036073      -0.00137757
V        1.46712216      10.23154713       7.31632915      -9.02568872       0.00018740      -0.00060137       0.00136152
V        0.00066675       8.75766738       8.78130941      -9.43605603       0.00055779       0.00188885       0.00155996
V        1.45837780      10.23554482      10.24900498      -9.06703588      -0.00232826       0.00102563       0.00325349
V        2.93319331      -0.01186323       0.01725072      -9.04972445      -0.00085094       0.00011820       0.00187881
V        4.38780907       1.45139781       1.46828872      -8.94359889       0.00179481       0.00023372      -0.00021185
V        2.93263967      -0.01746325       2.93748744      -8.98199684       0.00070489      -0.00096920       0.00054968
V        4.38963354       1.44799348       4.40089517      -8.91821013       0.00151330      -0.00087329      -0.00002374
V        2.92706323      -0.01354975       5.83382540      -8.94152756       0.00058652      -0.00148107       0.00066159
V        4.38779688       1.44904350       7.31502123      -8.97345532       0.00071957      -0.00001616       0.00081748
V        4.39078404       1.45375086      10.23655996      -8.95994739       0.00139240       0.00135999       0.00151726
V        2.93356111       2.91735657       0.00241404      -8.94503076      -0.00026986      -0.00011873       0.00078548
V        4.39157181       4.38102976       1.46674610      -8.92792041       0.00062173       0.00131698      -0.00093148
V        2.93365382       2.91544015       2.93490469      -8.92220598       0.00046151      -0.00105982      -0.00012198
V        4.39103142       4.37700633       4.39500480      -8.92412799       0.00031289      -0.00067177      -0.00062295
V        2.92924966       2.91448732       5.84893207      -8.95260517      -0.00009944      -0.00165001       0.00007712
V        4.38938735       4.38202630       7.31976941      -8.92741672      -0.00082177      -0.00034026      -0.00068868
V        2.92914645       2.93161570       8.77936611      -8.92611987      -0.00072158      -0.00043575       0.00117780
V        4.39088635       4.38131106      10.23845758      -8.92217784       0.00041712       0.00097800      -0.00050981
V        2.92743284       5.82966160       0.00384129      -9.02418811       0.00021189       0.00100863       0.00053872
V        4.39772163       7.29582276       1.47511339      -9.03387685       0.00116994       0.00196795       0.00049147
V        2.92954584       5.83681624       2.93512422      -8.98112136      -0.00042644       0.00052550       0.00032788
V        4.39527807       7.29769261       4.39697671      -8.92859477       0.00015395       0.00004618      -0.00020364
V        2.92871528       5.83700915       5.85602311      -8.90689105      -0.00080978      -0.00078726      -0.00081424
V        4.39374142       7.29313506       7.31990893      -8.92688804      -0.00026579      -0.00014217      -0.00023707
V        4.39647939       7.29382396      10.24190878      -9.03437009       0.00146241       0.00210707       0.00087502
V        4.39170573      10.22039224       1.47488880      -9.02147112       0.00255779       0.00160351       0.00083755
V        2.93083810       8.76349578       2.94336851      -9.04969373      -0.00110298       0.00018287       0.00027561
V        4.39384554      10.22589187       4.39813192      -8.92364506       0.00146629      -0.00031043       0.00013528
V        2.92673028       8.76095929       5.85127800      -8.95599451      -0.00066214      -0.00079866      -0.00060052
V        4.39244822      10.22759784       7.31645305      -8.96759790       0.00080088      -0.00021670       0.00081936
V        2.92770435       8.74872835       8.77954259      -9.04307805       0.00058847      -0.00011371       0.00152579
V        4.39730270      10.23017740      10.24362511      -9.05820302       0.00166497       0.00134858       0.00173614
V        5.83589034      -0.01604646       0.00639368      -8.99919116       0.00549010       0.00142773       0.00115442
V        7.24915018       1.45376042       1.47173765      -8.90904065       0.00226129       0.00174853       0.00001550
V        5.83992419      -0.02276550       2.94033442      -8.97570979       0.00323121       0.00095802      -0.00023848
V        7.32355342       1.44862920       4.38551385      -9.03785306       0.00272048       0.00005507      -0.00249624
V        5.85373005      -0.01608482       5.84895738      -8.95324473       0.00176965       0.00019391      -0.00021750
V        7.30769694       1.45165517       7.31605288      -8.91345057       0.00063973       0.00172504       0.00127753
V        5.86787360      -0.01508140       8.77592252      -8.93775961       0.00217607       0.00268478       0.00170541
V        7.32056962       1.46022006      10.24734370      -8.97129284       0.00613800      -0.00241920       0.00461175
V        5.84456075       2.92471589      -0.00164631      -8.97225706       0.00228510       0.00141640      -0.00194301
V        7.31242006       4.36892395       1.46398206      -9.31222645       0.00098530       0.00422800      -0.00154048
V        5.84127606       2.91652763       2.93643776      -9.02367434       0.00118371       0.00091947      -0.00119015
V        7.32502892       4.36721451       4.38691967      -9.09960498       0.00104309       0.00128431      -0.00060906
V        5.85516513       2.91378075       5.85321907      -8.97695839       0.00073885      -0.00011817      -0.00035479
V        7.31639785       4.38121102       7.31689680      -8.98791903      -0.00052066       0.00130819       0.00082768
V        5.85260912       2.92072736       8.77710152      -8.96797655       0.00045266       0.00085485       0.00096788
V        7.32136883       4.37715366      10.24512835      -8.99630446      -0.00073038       0.00376705      -0.00007626
V        5.86215083       5.83864598       0.00191251      -9.00083473       0.00022255       0.00308403       0.00025103
V        7.31342235       7.30215809       1.46819474      -8.99403794      -0.00172247      -0.00066747       0.00279315
V        5.85730027       5.83786382       2.92934495      -8.97343209       0.00068157       0.00104503      -0.00025298
V        7.31881530       7.29752421       4.39621469      -8.98936963       0.00189471       0.00218962      -0.00034666
V        5.85911917       5.83728417       5.85417258      -8.94650890      -0.00008077       0.00049929      -0.00038117
V        7.31879583       7.29999633       7.31812792      -9.20949890       0.00061465       0.00235094       0.00134904
V        5.85815843       5.83990630       8.78357720      -8.90686204      -0.00064056       0.00142050      -0.00040882
V        7.32427146       7.29973980      10.24549442      -8.99166312      -0.00183095       0.00207557      -0.00193787
V        5.86077190       8.75747399       0.00583076      -9.05933279       0.00371047       0.00192461       0.00016782
V        7.32183673      10.23271818       1.47779942      -8.96554031       0.00885209      -0.00294650      -0.00719142
V        5.85232306       8.75991542       2.93723337      -8.98479490       0.00185370       0.00222237       0.00023091
V        7.31698950      10.22443159       4.39538378      -8.93104046       0.00334728       0.00123242      -0.00295383
V        5.85823047       8.76025207       5.85449260      -8.92923296       0.00140414       0.00046859       0.00032242
V        7.31459496      10.22063338       7.31600137      -8.98545369       0.00141846       0.00169362       0.00104453
V        5.86168862       8.75799593       8.78105126      -9.01590671       0.00102136       0.00248912       0.00092560
V        7.32156730      10.23169139      10.24414862      -8.95902128       0.00464834       0.00543687       0.00388465
V        8.79727434      -0.00764398       2.94114101      -8.84324039       0.00540457       0.00240840      -0.00663521
V       10.24431434       1.44973392       4.45029427      -8.88474115       0.00149546      -0.00039218      -0.00152399
V        8.77423942      -0.02172961       5.86390803      -8.96040379       0.00114367       0.00031746      -0.00141354
V       10.24712240       1.45158582       7.31514213      -8.94049895      -0.00019350       0.00066811       0.00102329
V       10.24629471       1.46273646      10.17852038      -8.83469738      -0.00045993       0.00156456       0.00125809
V        8.80020328       2.92096161       0.01577101      -9.28681342      -0.00137002       0.00310865      -0.00109168
V       10.24895506       4.37032512       4.40257595      -9.37386392       0.00093212       0.00119099       0.00018064
V        8.77662403       2.91649637       5.86321590      -9.05607926       0.00039684       0.00047318      -0.00024752
V       10.24612915       4.38516446       7.32144322      -9.21087163      -0.00091882       0.00180084       0.00068335
V        8.77483031       2.92463562       8.76508968      -8.91052922      -0.00201310       0.00196171       0.00198736
V       10.24569562       4.37281844      10.23483348      -9.28815142      -0.00198918       0.00384007       0.00121507
V        8.78412761       5.84134594       0.00046698      -9.41816849      -0.00038243       0.01211957       0.00015436
V       10.24582394       7.31670229       1.46844546      -9.24812457       0.00109159       0.00386933       0.00107384
V        8.78298049       5.83766317       2.92847458      -9.48503446       0.00102425       0.00283798       0.00096571
V       10.24469014       7.30456828       4.40313243      -9.27755540       0.00113594       0.00360435      -0.00140459
V        8.77829530       5.83517517       5.85321683      -9.39009593       0.00064261       0.00157468       0.00056715
V        8.77800802       5.84118225       8.78699226      -9.34410096      -0.00001433       0.00324809       0.00055516
V       10.24178309       7.30260876      10.23958948      -9.28047884       0.00286794      -0.00085562      -0.00179622
V        8.78095600       8.75429144       0.00357931      -8.94313619      -0.03194167      -0.11335080      -0.03242797
V       10.25406918      10.16788118       1.48483695      -8.77238787      -0.02494864      -0.00049168      -0.02635233
V        8.77527761       8.74943787       2.94595930      -8.92785769       0.00333186       0.00541075      -0.00744189
V       10.24534974      10.23003303       4.39157007      -9.00451371       0.00094321       0.00111362      -0.00667650
V        8.77637475       8.76311014       5.85714860      -9.36635161       0.00131910       0.00197844       0.00036956
V       10.24418543      10.21627467       7.31603948      -9.19692409       0.00093519       0.00159016       0.00177336
V        8.77781008       8.76360685       8.77789046      -9.33843709       0.00026632       0.00177503       0.00359502
V       10.24637427      10.23572690      10.25020090      -9.03435182      -0.00674894      -0.00287215       0.00845510
W       10.25377592       4.44368651       1.45724054      -6.77867296      -0.00063981       0.00439451      -0.00016411
W       10.24326545       7.30320497       7.32037038      -6.67054460       0.00030896       0.00209390       0.00136212
Zr       2.92759372      -0.00221414       8.77476209      -7.90796306       0.00032587      -0.00010417       0.00197820
Zr       8.80872846       0.02391037       0.02372735      -7.87931510       0.01999355      -0.02186337       0.02019546
