127
Lattice="11.704399053409029 0.0008083397555309771 0.0004642799452775858 0.0008084012019151772 11.705913887344366 0.0012991646523473062 0.0004642776101685465 0.0012990500267091095 11.706916941412393" Properties=species:S:1:pos:R:3:energies:R:1:forces:R:3 energy=-1129.6871069393287 free_energy=-1129.6871069393287 stress="-0.025352615978293778 -0.0002463026938220248 -0.000437308592651901 -0.0002463026938220248 -0.02105743433040686 0.00038286149839950983 -0.000437308592651901 0.00038286149839950983 -0.026706259366051095" pbc="T T T"
Cr       2.96228235       8.80205337       0.02084064      -7.22915432      -0.15995534       0.02421421      -0.07297999
Cr       8.82543750       2.93321560       2.91563431      -7.68192568      -0.01189953      -0.08257201      -0.06847808
Ti       2.92192641       5.90081400       8.76399829      -7.95142941       0.02469036      -0.03106628       0.05513423
Ti       8.72459763       0.07406331       8.61452320      -7.85028657       0.21347894      -0.07676292       0.08443413
V       -0.07775096       0.04245753       0.07962468      -8.85086900       0.02455592       0.09288832      -0.16015690
V        1.51554614       1.52462586       1.47862830      -8.81030053      -0.09739730      -0.05126632      -0.07893151
V        0.02244568       0.12850177       2.94989571      -8.74144187       0.06924577      -0.14140097       0.07947514
V        1.45372347       1.51753037       4.38819733      -8.92688650       0.01071494       0.08261991       0.01141117
V        0.01005029       0.05214819       5.87019048      -8.93112004      -0.05249834       0.00683792      -0.06593886
V        1.45921167       1.51764739       7.31874409      -8.95693390       0.05542924      -0.00780431       0.00352332
V        0.01039994       0.05681934       8.75289823      -8.85109217       0.05274943      -0.05465336      -0.08096884
V        1.45569442       1.52347823      10.25767123      -8.99041289      -0.11165761      -0.09621872       0.07816309
V       -0.02149798       2.94729265       0.03868120      -9.22911288       0.09160228       0.00748316       0.03058223
V        1.47436436       4.41362568       1.47286803      -9.22432556      -0.02999715      -0.00323418      -0.02569722
V       -0.01518664       2.94949038       2.91151234      -9.29217437      -0.00112745       0.02358573       0.01622301
V        1.45993712       4.42378595       4.38788841      -9.00083311       0.01473033       0.02358595       0.01779980
V        0.00521324       2.98221710       5.86410590      -8.95995112      -0.02207617       0.00718500      -0.01678765
V        1.45589019       4.43889073       7.31553125      -8.99493821       0.01052915      -0.01601166       0.05776038
V       -0.01179880       2.97064730       8.79369799      -8.96642044       0.10632769       0.10834229      -0.07280873
V        1.45305438       4.43082405      10.23868774      -9.00002773       0.00733872      -0.00682363       0.04173282
V       -0.00396254       5.86726891       0.01261260      -9.43661660      -0.07642131       0.09494661      -0.03126557
V        1.50647572       7.32992298       1.45199675      -9.05268866      -0.11231283       0.02646393       0.18809672
V       -0.00430857       5.85476691       2.92128267      -9.44536142       0.03248966       0.14744113       0.04165830
V        1.47920259       7.33997039       4.41049816      -8.93044064      -0.04089425       0.02185219      -0.04431784
V       -0.00412037       5.88251008       5.86053471      -9.34699371       0.05144131      -0.00927415       0.00301417
V        1.47217536       7.34811687       7.31782746      -9.19340124      -0.01687521      -0.02571904      -0.00069967
V        0.00571088       5.88846616       8.80153115      -9.32653184      -0.03663954       0.02974773      -0.03481710
V        1.48331353       7.34232721      10.23614936      -9.08209796      -0.05587016       0.00471324      -0.02737413
V        0.07438125       8.79680073      -0.05193300      -8.97834725      -0.11803794      -0.03756352       0.27436377
V        1.54556504      10.31535997       1.45996700      -9.07764811      -0.22203863      -0.17777016       0.09200037
V        0.13139499       8.70043258       3.06640883      -8.74848720      -0.44947729       0.41417691      -0.41218411
V        1.48392944      10.32655273       4.42020453      -8.89382382      -0.03796640      -0.23100432      -0.01894943
V       -0.00022713       8.83270777       5.89394342      -9.36585418       0.06079362      -0.07916142      -0.18484547
V        1.48250851      10.29546604       7.32041788      -9.00114602       0.00379996       0.01298334      -0.01353303
V        0.04322868       8.78333887       8.73660260      -9.40774476      -0.11388043       0.11639825       0.14595700
V        1.49943207      10.30352414      10.25525456      -9.09042546      -0.10826556      -0.03636293      -0.08448781
V        2.93364472       0.06686739       0.01446528      -9.00421371      -0.11991189       0.00935514      -0.00244256
V        4.37220390       1.52735361       1.47980593      -8.91677538       0.01037847       0.01464861      -0.06532339
V        2.94750502       0.05520857       2.95276420      -8.96571078      -0.06723509      -0.00376192      -0.07445405
V        4.39688438       1.51664496       4.38804051      -8.91378540      -0.01480154       0.01535498       0.02857816
V        2.92760342       0.05295882       5.83821558      -8.93440866       0.00216863       0.00297114      -0.00076259
V        4.35353958       1.50665265       7.27911246      -8.95750502       0.06836900       0.03854166       0.14058049
V        4.32097867       1.51528427      10.23107505      -8.99651075       0.13848780       0.08065834      -0.10784635
V        2.90960318       2.99009900       0.00548996      -8.94995527       0.05675111      -0.01060808      -0.00664165
V        4.38694206       4.45161042       1.47993770      -8.92493081       0.03623099      -0.05948692      -0.02292271
V        2.93360255       2.98174393       2.94036553      -8.90843913       0.00705164      -0.00089707      -0.02357956
V        4.38574924       4.43710098       4.38529065      -8.92623513       0.04748355      -0.00292661       0.02807716
V        2.91343933       2.97888570       5.83511814      -8.94890630       0.04679683      -0.00626966       0.05167304
V        4.37107139       4.45220989       7.30495498      -8.90070091       0.01948229      -0.00367149       0.02070368
V        2.89432330       2.99746635       8.77439108      -8.92630843       0.09875329       0.02287703      -0.00793278
V        4.35391374       4.47968877      10.24619559      -8.91055675       0.05813760      -0.08062038      -0.05774312
V        2.92931130       5.88468975       0.00362791      -9.00527181      -0.02008293       0.01964024      -0.02154576
V        4.40627560       7.34238410       1.48485219      -9.00348001      -0.08770732      -0.01175692      -0.03632902
V        2.93761850       5.88722733       2.92767521      -8.96523346      -0.00420142      -0.01556060       0.04417420
V        4.39455659       7.35297160       4.40646283      -8.92060845      -0.00704173      -0.00731583      -0.01752883
V        2.91499278       5.90134828       5.84312029      -8.89622728       0.06812359      -0.03916964       0.08491547
V        4.39088550       7.35838558       7.31646710      -8.93212373       0.00299861      -0.00807637       0.01068479
V        4.39897079       7.34845909      10.22543529      -9.00855145      -0.05627643       0.01057279       0.07096385
V        4.32967930      10.28079914       1.48308152      -9.04984954       0.15350512       0.05024564      -0.06800159
V        2.96498049       8.83067498       2.94808413      -9.06620005      -0.19527844      -0.09252441       0.04888900
V        4.39678172      10.29238543       4.41516177      -8.90231363      -0.05615888      -0.02332729      -0.01574748
V        2.93286108       8.83278302       5.85811752      -8.94604718       0.00583306      -0.04480922       0.02163903
V        4.38830841      10.28952303       7.31349447      -8.97227193       0.02279819       0.07839277       0.04175279
V        2.94400717       8.81117785       8.77141860      -9.04019814      -0.05025540       0.00800043       0.01506846
V        4.38646156      10.30288388      10.22768505      -9.06953657      -0.14363525       0.00935826       0.03511950
V        5.76572813       0.05537045      -0.01774604      -9.01030861      -0.07227192       0.02565250       0.08688419
V        7.30333138       1.45003401       1.42664644      -8.89280986      -0.30855780       0.34921049       0.01204983
V        5.83744609       0.06004410       2.95002908      -8.92737216      -0.10162549      -0.00907862       0.01281429
V        7.33343715       1.52028079       4.37181362      -9.04240463       0.04193933      -0.09768807      -0.11496958
V        5.83937586       0.04723235       5.83123598      -8.93966550       0.02970467       0.02394893       0.02696416
V        7.28606270       1.52471526       7.23303994      -8.92009862      -0.02304759       0.07543909       0.09323123
V        5.85947867       0.02636493       8.75467501      -8.96916548      -0.23108126       0.05013653      -0.14607013
V        7.10979003       1.74660974      10.05606241      -8.49410248       0.48614047      -0.56573107       0.52694679
V        5.79432461       3.03320716       0.05574826      -8.90789936       0.08283367      -0.10126321      -0.29654454
V        7.31587050       4.41774864       1.49440122      -9.26788189      -0.05403746       0.01298056      -0.07607867
V        5.86549834       2.96339132       2.92251216      -9.05062477      -0.04624588       0.04502078       0.01284311
V        7.32020239       4.42013606       4.38056899      -9.10671868       0.02337662       0.00070966       0.02436505
V        5.84580484       2.97959907       5.82068160      -8.97870792       0.00607740       0.02551308       0.09861852
V        7.32346887       4.47236453       7.28960011      -8.98142792      -0.05805979      -0.07527077       0.07144148
V        5.77477459       3.06098300       8.70345599      -8.85309900       0.31744257      -0.28114302       0.34034177
V        7.32126899       4.51444354      10.24675327      -8.99374135      -0.11006083      -0.30495762      -0.07658274
V        5.88111217       5.92206163       0.01026531      -9.01598390      -0.06500363      -0.10455853       0.00013808
V        7.35581335       7.38451257       1.44823421      -8.86984762      -0.00061063       0.15673801       0.00363196
V        5.86767974       5.89565144       2.93290522      -8.97869661      -0.01605518      -0.00372808      -0.02193343
V        7.31000828       7.34707689       4.42199564      -8.96649611      -0.04922456       0.00111542      -0.06072499
V        5.84961971       5.90044717       5.84686863      -8.93169801       0.02753702      -0.02500272       0.02844542
V        7.30306381       7.35257003       7.32226867      -9.18007751       0.07264115      -0.01355758      -0.06609642
V        5.85860158       5.93011121       8.78814956      -8.91058507      -0.01398745      -0.12093094      -0.01128858
V        7.36182746       7.38292940      10.28189362      -8.84493857       0.05396103      -0.00480054       0.05133557
V        5.78958431       8.78746981      -0.00400605      -8.86190285       0.11833806       0.15817673       0.17163607
V        7.07428301      10.26438039       1.59126586      -8.60376477       0.48277864       0.30366313      -0.27548056
V        5.81226021       8.78604476       2.97823239      -8.95681918       0.12191893       0.10122000      -0.03273046
V        7.31885222      10.29687879       4.43318206      -8.94428599      -0.02740364      -0.06515607      -0.12006929
V        5.84614355       8.82080836       5.86925775      -8.92173131       0.02314326       0.01560482      -0.02950503
V        7.28760906      10.28341516       7.29693188      -8.98116769       0.05840055       0.01098007      -0.14316438
V        5.86501272       8.81652689       8.78609748      -9.01721448      -0.16455879      -0.11128372      -0.16665757
V        7.27788535      10.15624371      10.20658076      -8.77644537      -0.21066116       0.31982564      -0.34147763
V        8.83308892       0.01431242       2.88983727      -8.86465825      -0.06551245       0.04700816       0.14827688
V       10.24385691       1.52117270       4.45632786      -8.89581163      -0.05107838      -0.05580681      -0.09837438
V        8.76802373       0.05959073       5.85076237      -8.93659784      -0.01022852       0.00605787      -0.17662676
V       10.24967632       1.53024266       7.30200187      -8.92969139      -0.01270335      -0.00627627      -0.07081240
V       10.26537079       1.50242159      10.20730455      -8.73298924       0.05945615       0.42476732      -0.48866294
V        8.78804685       3.01491940       0.01193064      -9.30723199      -0.01481395       0.02331170      -0.01800621
V       10.24967422       4.41878949       4.40864564      -9.38050090      -0.02732007      -0.01663970      -0.03554902
V        8.77564131       2.99093499       5.84853190      -9.05303874       0.00365023      -0.00856294       0.01131761
V       10.24804775       4.44383125       7.32810170      -9.22427933      -0.04098482      -0.03101069       0.01916003
V        8.81644703       2.99373535       8.73938074      -8.92356743      -0.22170834       0.11032545      -0.03612546
V       10.26250352       4.42473762      10.23925033      -9.26264342      -0.06152568       0.00744061      -0.00418468
V        8.79416569       5.81339277       0.01826789      -9.22248080       0.01501228       0.09735787      -0.01194356
V       10.21230583       7.31850590       1.43619856      -9.16592842       0.08387628       0.53756879       0.09702352
V        8.78319341       5.87726292       2.93755191      -9.48067258       0.00155732       0.09529943      -0.08247336
V       10.21642307       7.33471838       4.44522152      -9.24866951       0.20076156       0.03217071      -0.11997893
V        8.77463794       5.88452144       5.86301182      -9.37657384      -0.01665801       0.01233032      -0.03845733
V        8.78246800       5.91752306       8.80911638      -9.34773775       0.01647276      -0.07460782      -0.08350475
V       10.21977867       7.37664354      10.27421621      -9.11463203      -0.00904038       0.19567919       0.02421471
V        9.05383346      10.22250651       0.35802140      -7.98968847      -0.12702896      -1.56931536      -0.06731005
V       10.56039537      10.05818594       1.79600729      -8.01883267       0.39588257       0.06636410       0.38990433
V        8.71466994       8.80458535       3.02897416      -8.88305954       0.29118748      -0.02700791      -0.15875408
V       10.23278564      10.31430791       4.48280875      -9.03259728       0.08519337      -0.16997697      -0.25100324
V        8.77023808       8.81094180       5.87782330      -9.36818092      -0.04243201       0.02705587      -0.11681954
V       10.23938767      10.28913020       7.27452887      -9.21374195      -0.00654470      -0.02375948       0.07720297
V        8.76697213       8.80403061       8.70698761      -9.12649364       0.17978091       0.09174972       0.04476273
V       10.35125940      10.26903632      10.02209405      -8.81533802      -0.36021066       0.31173653       0.54056378
W       10.26513215       4.45687173       1.47900602      -6.73145876      -0.06825308       0.10037242      -0.07401128
W       10.24880840       7.34077617       7.31683788      -6.57803975      -0.01990810       0.03663599       0.00939162
Zr       2.92035372       0.06408999       8.77084139      -7.87410433       0.05629182       0.01692534       0.02620530
Zr       8.36677503       0.42132530      -0.75539977      -6.81008238       0.39769611      -0.07960887       1.12213510
