 vasp.6.4.2 20Jul23 (build Sep 20 2024 16:56:05) complex                         
 executed on              LinuxNV date 2024.12.10  13:18:58
 running    4 mpi-ranks, with    8 threads/rank, on    1 nodes
 distrk:  each k-point on    4 cores,    1 groups
 distr:  one band on NCORE=   1 cores,    4 groups
 OpenACC runtime initialized ...    4 GPUs detected


--------------------------------------------------------------------------------------------------------


 INCAR:
   ENCUT = 520.000000
   POTIM = 0.200000
   SIGMA = 0.200000
   EDIFF = 1.00e-06
   EDIFFG = -1.00e-02
   ALGO = Normal
   GGA = PE
   PREC = Accurate
   IBRION = 2
   ISIF = 2
   ISMEAR = 1
   LORBIT = 11
   NELM = 100
   NSW = -1
   LCHARG = .TRUE.
   LWAVE = .FALSE.
   LREAL = .FALSE.

 POTCAR:    PAW_PBE V_pv 07Sep2000                
 POTCAR:    PAW_PBE Cr_pv 02Aug2007               
 POTCAR:    PAW_PBE Ti_pv 07Sep2000               
 POTCAR:    PAW_PBE V_pv 07Sep2000                
   SHA256 =  1175d3c8cb4ffd1d150a520fa74fae5c3ec72c0849b5615a94a5372dd2cf07f7 V_pv/POTCAR           
   COPYR  = (c) Copyright 07Sep2000 Georg Kresse                                                    
   COPYR  = This file is part of the software VASP. Any use, copying, and all other rights are regul
   COPYR  = If you do not have a valid VASP license, you may not use, copy or distribute this file. 
   VRHFIN =V: p6 d4 s1                                                                              
   LEXCH  = PE                                                                                      
   EATOM  =  1321.6206 eV,   97.1364 Ry                                                             
                                                                                                    
   TITEL  = PAW_PBE V_pv 07Sep2000                                                                  
   LULTRA =        F    use ultrasoft PP ?                                                          
   IUNSCR =        1    unscreen: 0-lin 1-nonlin 2-no                                               
   RPACOR =    1.700    partial core radius                                                         
   POMASS =   50.941; ZVAL   =   11.000    mass and valenz                                          
   RCORE  =    2.300    outmost cutoff radius                                                       
   RWIGS  =    2.300; RWIGS  =    1.217    wigner-seitz radius (au A)                               
   ENMAX  =  263.673; ENMIN  =  197.755 eV                                                          
   RCLOC  =    1.779    cutoff for local pot                                                        
   LCOR   =        T    correct aug charges                                                         
   LPAW   =        T    paw PP                                                                      
   EAUG   =  598.473                                                                                
   DEXC   =    0.000                                                                                
   RMAX   =    2.359    core radius for proj-oper                                                   
   RAUG   =    1.300    factor for augmentation sphere                                              
   RDEP   =    2.430    radius for radial grids                                                     
   RDEPT  =    1.700    core radius for aug-charge                                                  
                                                                                                    
   Atomic configuration                                                                             
    8 entries                                                                                       
     n  l   j            E        occ.                                                              
     1  0  0.50     -5360.7193   2.0000                                                             
     2  0  0.50      -598.4546   2.0000                                                             
     2  1  1.50      -499.0155   6.0000                                                             
     3  0  0.50       -66.5711   2.0000                                                             
     3  1  1.50       -40.5282   6.0000                                                             
     3  2  2.50        -2.4291   4.0000                                                             
     4  0  0.50        -3.8743   1.0000                                                             
     4  3  2.50        -1.3606   0.0000                                                             
   Description                                                                                      
     l       E           TYP  RCUT    TYP  RCUT                                                     
     1    -40.5282431     23  2.000                                                                 
     1      5.4423304     23  2.000                                                                 
     2     -2.4290905     23  2.300                                                                 
     2     -1.0472488     23  2.300                                                                 
     0     -3.8742754     23  2.300                                                                 
     0     27.2116520     23  2.300                                                                 
  local pseudopotential read in
  partial core-charges read in
  partial kinetic energy density read in
  atomic valenz-charges read in
  non local Contribution for L=            1  read in
    real space projection operators read in
  non local Contribution for L=            1  read in
    real space projection operators read in
  non local Contribution for L=            2  read in
    real space projection operators read in
  non local Contribution for L=            2  read in
    real space projection operators read in
  non local Contribution for L=            0  read in
    real space projection operators read in
  non local Contribution for L=            0  read in
    real space projection operators read in
    PAW grid and wavefunctions read in
 
   number of l-projection  operators is LMAX  =            6
   number of lm-projection operators is LMMAX =           18
 
 POTCAR:    PAW_PBE Cr_pv 02Aug2007               
   SHA256 =  c9a7df34d3cdbacf1090e328ef39c0b420964e11c23f63548d1ac9dd218cdba0 Cr_pv/POTCAR          
   COPYR  = (c) Copyright 02Aug2007 Georg Kresse                                                    
   COPYR  = This file is part of the software VASP. Any use, copying, and all other rights are regul
   COPYR  = If you do not have a valid VASP license, you may not use, copy or distribute this file. 
   VRHFIN =Cr : p6d5s1                                                                              
   LEXCH  = PE                                                                                      
   EATOM  =  1647.9177 eV,  121.1185 Ry                                                             
                                                                                                    
   TITEL  = PAW_PBE Cr_pv 02Aug2007                                                                 
   LULTRA =        F    use ultrasoft PP ?                                                          
   IUNSCR =        1    unscreen: 0-lin 1-nonlin 2-no                                               
   RPACOR =    2.080    partial core radius                                                         
   POMASS =   51.996; ZVAL   =   12.000    mass and valenz                                          
   RCORE  =    2.300    outmost cutoff radius                                                       
   RWIGS  =    2.500; RWIGS  =    1.323    wigner-seitz radius (au A)                               
   ENMAX  =  265.681; ENMIN  =  199.261 eV                                                          
   ICORE  =        3    local potential                                                             
   LCOR   =        T    correct aug charges                                                         
   LPAW   =        T    paw PP                                                                      
   EAUG   =  519.424                                                                                
   DEXC   =    0.000                                                                                
   RMAX   =    2.356    core radius for proj-oper                                                   
   RAUG   =    1.300    factor for augmentation sphere                                              
   RDEP   =    2.447    radius for radial grids                                                     
   RDEPT  =    1.882    core radius for aug-charge                                                  
                                                                                                    
   Atomic configuration                                                                             
    8 entries                                                                                       
     n  l   j            E        occ.                                                              
     1  0  0.50     -5880.4963   2.0000                                                             
     2  0  0.50      -667.0865   2.0000                                                             
     2  1  1.50      -560.6250   6.0000                                                             
     3  0  0.50       -73.9860   2.0000                                                             
     3  1  1.50       -45.4378   6.0000                                                             
     3  2  2.50        -2.9137   5.0000                                                             
     4  0  0.50        -4.0071   1.0000                                                             
     4  3  2.50        -1.3606   0.0000                                                             
   Description                                                                                      
     l       E           TYP  RCUT    TYP  RCUT                                                     
     1    -45.4377911     23  2.000                                                                 
     1      1.3605826     23  2.000                                                                 
     2     -2.9136672     23  2.300                                                                 
     2     -4.2742498     23  2.300                                                                 
     0     -4.0071320     23  2.300                                                                 
     0      9.4498803     23  2.300                                                                 
     3      2.7211652     23  2.300                                                                 
  local pseudopotential read in
  partial core-charges read in
  partial kinetic energy density read in
  atomic valenz-charges read in
  non local Contribution for L=            1  read in
    real space projection operators read in
  non local Contribution for L=            1  read in
    real space projection operators read in
  non local Contribution for L=            2  read in
    real space projection operators read in
  non local Contribution for L=            2  read in
    real space projection operators read in
  non local Contribution for L=            0  read in
    real space projection operators read in
  non local Contribution for L=            0  read in
    real space projection operators read in
    PAW grid and wavefunctions read in
 
   number of l-projection  operators is LMAX  =            6
   number of lm-projection operators is LMMAX =           18
 
 POTCAR:    PAW_PBE Ti_pv 07Sep2000               
   SHA256 =  f757a1b2c6d082f4c628fa3d987464a8763bf92e53844ac0500b0e2ddc9ce5c0 Ti_pv/POTCAR          
   COPYR  = (c) Copyright 07Sep2000 Georg Kresse                                                    
   COPYR  = This file is part of the software VASP. Any use, copying, and all other rights are regul
   COPYR  = If you do not have a valid VASP license, you may not use, copy or distribute this file. 
   VRHFIN =Ti: d3 s1                                                                                
   LEXCH  = PE                                                                                      
   EATOM  =  1042.5995 eV,   76.6289 Ry                                                             
                                                                                                    
   TITEL  = PAW_PBE Ti_pv 07Sep2000                                                                 
   LULTRA =        F    use ultrasoft PP ?                                                          
   IUNSCR =        1    unscreen: 0-lin 1-nonlin 2-no                                               
   RPACOR =    2.200    partial core radius                                                         
   POMASS =   47.880; ZVAL   =   10.000    mass and valenz                                          
   RCORE  =    2.500    outmost cutoff radius                                                       
   RWIGS  =    2.500; RWIGS  =    1.323    wigner-seitz radius (au A)                               
   ENMAX  =  222.335; ENMIN  =  166.751 eV                                                          
   RCLOC  =    1.701    cutoff for local pot                                                        
   LCOR   =        T    correct aug charges                                                         
   LPAW   =        T    paw PP                                                                      
   EAUG   =  482.848                                                                                
   DEXC   =    0.000                                                                                
   RMAX   =    2.564    core radius for proj-oper                                                   
   RAUG   =    1.300    factor for augmentation sphere                                              
   RDEP   =    2.538    radius for radial grids                                                     
   RDEPT  =    1.952    core radius for aug-charge                                                  
                                                                                                    
   Atomic configuration                                                                             
    8 entries                                                                                       
     n  l   j            E        occ.                                                              
     1  0  0.50     -4865.3608   2.0000                                                             
     2  0  0.50      -533.1368   2.0000                                                             
     2  1  1.50      -440.5031   6.0000                                                             
     3  0  0.50       -59.3186   2.0000                                                             
     3  1  1.50       -35.7012   6.0000                                                             
     3  2  2.50        -1.9157   3.0000                                                             
     4  0  0.50        -3.7291   1.0000                                                             
     4  3  2.50        -1.3606   0.0000                                                             
   Description                                                                                      
     l       E           TYP  RCUT    TYP  RCUT                                                     
     1    -35.7012140     23  2.300                                                                 
     1     -1.3605826     23  2.300                                                                 
     2     -1.9156996     23  2.500                                                                 
     2     -0.4063033     23  2.500                                                                 
     0     -3.7290856     23  2.500                                                                 
     0     20.4087390     23  2.500                                                                 
  local pseudopotential read in
  partial core-charges read in
  partial kinetic energy density read in
  atomic valenz-charges read in
  non local Contribution for L=            1  read in
    real space projection operators read in
  non local Contribution for L=            1  read in
    real space projection operators read in
  non local Contribution for L=            2  read in
    real space projection operators read in
  non local Contribution for L=            2  read in
    real space projection operators read in
  non local Contribution for L=            0  read in
    real space projection operators read in
  non local Contribution for L=            0  read in
    real space projection operators read in
    PAW grid and wavefunctions read in
 
   number of l-projection  operators is LMAX  =            6
   number of lm-projection operators is LMMAX =           18
 
 -----------------------------------------------------------------------------
|                                                                             |
|               ----> ADVICE to this user running VASP <----                  |
|                                                                             |
|     You have a (more or less) 'large supercell' and for larger cells it     |
|     might be more efficient to use real-space projection operators.         |
|     Therefore, try LREAL= Auto in the INCAR file.                           |
|     Mind: For very accurate calculation, you might also keep the            |
|     reciprocal projection scheme (i.e. LREAL=.FALSE.).                      |
|                                                                             |
 -----------------------------------------------------------------------------

  PAW_PBE V_pv 07Sep2000                :
 energy of atom  1       EATOM=-1321.6206
 kinetic energy error for atom=    0.0054 (will be added to EATOM!!)
  PAW_PBE Cr_pv 02Aug2007               :
 energy of atom  2       EATOM=-1647.9177
 kinetic energy error for atom=    0.0057 (will be added to EATOM!!)
  PAW_PBE Ti_pv 07Sep2000               :
 energy of atom  3       EATOM=-1042.5995
 kinetic energy error for atom=    0.0019 (will be added to EATOM!!)
 
 
 POSCAR: V  Cr Ti
  positions in cartesian coordinates
  No initial velocities read in
 exchange correlation table for  LEXCH =        8
   RHO(1)=    0.500       N(1)  =     2000
   RHO(2)=  100.500       N(2)  =     4000
 


--------------------------------------------------------------------------------------------------------


 ion  position               nearest neighbor table
   1  0.004  0.993  0.003- 114 2.58   2 2.59  22 2.59  28 2.60  95 2.62   5 2.62 115 2.69  23 2.78
                           110 2.85  21 2.85 118 3.00
   2  0.999  0.006  0.205-  96 2.52   6 2.54   3 2.55  29 2.55 110 2.57   1 2.59  18 2.60  23 2.60
                             7 2.92
   3  1.000  0.999  0.398-   2 2.55  24 2.56 111 2.58  97 2.59  19 2.59   4 2.60  30 2.61   7 2.62

   4  0.001  1.000  0.599-  98 2.54  25 2.55 112 2.58   8 2.59  20 2.59   3 2.60  31 2.60   5 2.66
                           116 3.00
   5  0.001  0.003  0.804- 118 2.50 116 2.53  27 2.57  26 2.60 113 2.62   1 2.62  21 2.63   4 2.66
                            98 2.88 114 2.92 115 2.94
   6  0.005  0.200  0.198- 115 2.52   2 2.54  28 2.56  95 2.57   9 2.58  34 2.59  99 2.61   7 2.63
                           119 2.93
   7  0.002  0.202  0.400- 100 2.56  10 2.59  29 2.60  35 2.60   3 2.62   6 2.63  96 2.63   8 2.63
                             2 2.92
   8  0.006  0.201  0.603-  30 2.55   4 2.59  36 2.59  11 2.60 116 2.61  97 2.62   7 2.63 122 2.67

   9  0.001  0.397  0.197- 119 2.51 117 2.51  33 2.58   6 2.58  10 2.61  39 2.61 102 2.64  14 2.66
                           101 2.87 115 2.95
  10  0.003  0.402  0.400-  34 2.58   7 2.59  15 2.59  40 2.60 103 2.61  11 2.61   9 2.61  99 2.62

  11  0.002  0.399  0.599-  35 2.58   8 2.60 100 2.61  10 2.61 104 2.62  41 2.63  16 2.65  12 2.70
                           122 2.99
  12  0.010  0.400  0.810-  37 2.54  36 2.55 117 2.57 116 2.57  17 2.64 122 2.70  11 2.70 124 2.70
                            32 2.87 123 2.97
  13  0.006  0.612  0.005-  43 2.55  14 2.60  37 2.60 105 2.63  17 2.64 124 2.66 117 2.73  42 2.83
                            18 2.83 109 2.84
  14  0.001  0.603  0.201- 101 2.54  44 2.55 106 2.58  38 2.59  13 2.60  15 2.60  18 2.63   9 2.66
                           117 2.99
  15  0.002  0.601  0.401- 102 2.58  45 2.59  16 2.59  10 2.59  39 2.60  19 2.60 107 2.60  14 2.60

  16  0.003  0.604  0.601-  20 2.57  17 2.58  46 2.58  15 2.59  40 2.59 108 2.60 103 2.61  11 2.65
                           104 2.92
  17  0.003  0.596  0.796-  41 2.54 104 2.56  42 2.57  16 2.58 109 2.60  13 2.64  12 2.64  21 2.65
                           124 2.96
  18  0.999  0.800  0.188- 105 2.57   2 2.60  24 2.60 111 2.61  43 2.62  14 2.63  19 2.74  23 2.82
                            13 2.83 110 2.84
  19  0.000  0.800  0.399- 106 2.56  44 2.58   3 2.59  25 2.59 112 2.60  15 2.60  20 2.62  18 2.74

  20  0.001  0.801  0.601- 113 2.56  26 2.57  16 2.57 107 2.59   4 2.59  45 2.60  19 2.62  21 2.70

  21  0.003  0.804  0.810-  22 2.57 108 2.60  46 2.61   5 2.63 114 2.63  17 2.65  20 2.70 109 2.74
                            42 2.84   1 2.85
  22  0.205  0.006  0.999-  26 2.52  27 2.54  47 2.55  53 2.55  21 2.57   1 2.59  42 2.60  23 2.60
                            52 2.92
  23  0.186  0.987  0.185-  43 2.60  22 2.60   2 2.60  28 2.61  24 2.64  48 2.64  54 2.74   1 2.78
                            42 2.82  18 2.82
  24  0.195  0.997  0.395-   3 2.56  49 2.59  29 2.60  18 2.60  44 2.61  55 2.64  23 2.64  25 2.65

  25  0.198  0.999  0.600-  50 2.51   4 2.55  19 2.59  26 2.60  56 2.60  45 2.61  30 2.62  24 2.65

  26  0.198  0.999  0.800-  22 2.52  20 2.57  46 2.59  25 2.60   5 2.60  31 2.63  51 2.63  52 2.63

  27  0.199  0.200  0.004- 115 2.52  22 2.54  28 2.56   5 2.57  32 2.58  58 2.59  31 2.61  52 2.63
                           116 2.93
  28  0.202  0.197  0.201-   6 2.56  27 2.56  29 2.57  53 2.57  33 2.59   1 2.60  23 2.61  59 2.61
                            54 2.92 115 2.97
  29  0.200  0.200  0.399-   2 2.55  54 2.56  28 2.57  30 2.59   7 2.60  24 2.60  34 2.60  60 2.62

  30  0.200  0.201  0.599-  55 2.54   8 2.55  29 2.59  35 2.61   3 2.61  25 2.62  61 2.62  31 2.67

  31  0.196  0.201  0.803- 116 2.43  56 2.58   4 2.60  36 2.60  27 2.61  57 2.62  26 2.63  30 2.67

  32  0.198  0.397  0.000- 116 2.51 117 2.51  33 2.58  27 2.58  57 2.61  63 2.61  36 2.64  37 2.66
                            12 2.87 115 2.95
  33  0.200  0.396  0.199- 115 2.54  58 2.58  34 2.58   9 2.58  32 2.58  28 2.59  38 2.60  64 2.61
                           117 2.94
  34  0.201  0.400  0.400-  33 2.58  10 2.58  39 2.58  35 2.59  59 2.59   6 2.59  29 2.60  65 2.61

  35  0.201  0.403  0.600-  11 2.58  60 2.58  40 2.58  34 2.59   7 2.60  30 2.61  36 2.61  66 2.61

  36  0.204  0.403  0.801-  12 2.55  61 2.56  62 2.58   8 2.59  41 2.60  31 2.60  35 2.61  32 2.64
                           116 3.00
  37  0.202  0.603  0.001-  12 2.54  68 2.55  41 2.58  38 2.59  13 2.60  62 2.60  42 2.63  32 2.66
                           117 2.99
  38  0.194  0.592  0.194- 117 2.42  14 2.59  37 2.59  33 2.60  43 2.61  63 2.62  39 2.62  69 2.63

  39  0.201  0.599  0.399-  34 2.58  64 2.59  15 2.60  40 2.60  44 2.61   9 2.61  38 2.62  70 2.62

  40  0.202  0.601  0.600-  35 2.58  45 2.58  16 2.59  65 2.59  10 2.60  71 2.60  39 2.60  41 2.61

  41  0.202  0.603  0.802-  17 2.54  67 2.56  37 2.58  46 2.59  66 2.59  36 2.60  40 2.61  11 2.63

  42  0.189  0.800  0.998-  17 2.57  22 2.60  48 2.60  46 2.61  43 2.62  37 2.63  67 2.74  23 2.82
                            13 2.83  21 2.84
  43  0.205  0.801  0.205-  49 2.50  13 2.55  44 2.56  68 2.56  23 2.60  38 2.61  42 2.62  18 2.62

  44  0.198  0.798  0.398-  50 2.51  14 2.55  43 2.56  19 2.58  24 2.61  39 2.61  45 2.61  69 2.62

  45  0.201  0.800  0.601-  40 2.58  15 2.59  20 2.60  25 2.61  46 2.61  44 2.61  51 2.62  70 2.62
                            50 2.91
  46  0.200  0.801  0.802-  16 2.58  47 2.58  41 2.59  26 2.59  42 2.61  45 2.61  21 2.61  71 2.62

  47  0.399  0.999  0.999-  22 2.55  48 2.56  46 2.58  51 2.59  67 2.59  72 2.60  77 2.61  52 2.62

  48  0.395  0.997  0.194-  47 2.56  49 2.59  53 2.60  42 2.60  68 2.61  78 2.64  23 2.64  73 2.65

  49  0.395  0.999  0.394-  43 2.50  79 2.52  48 2.59  24 2.59  54 2.59  50 2.65  74 2.65  69 2.68
                           120 3.03
  50  0.387  0.994  0.593-  25 2.51  44 2.51  70 2.61  51 2.61  55 2.64  49 2.65 120 2.69 121 2.70
                            45 2.91
  51  0.402  0.002  0.802-  47 2.59  71 2.59  50 2.61  56 2.62  45 2.62  76 2.62  26 2.63  75 2.68
                           121 3.00
  52  0.401  0.202  0.001-  56 2.55  57 2.59  53 2.60  81 2.60  47 2.62  27 2.63  26 2.63  76 2.63
                            22 2.92
  53  0.399  0.200  0.200-  22 2.55  54 2.56  28 2.57  77 2.59  52 2.60  48 2.60  58 2.60  82 2.62

  54  0.396  0.199  0.396-  53 2.56  29 2.56  59 2.59  49 2.59  78 2.64  55 2.64  83 2.69  23 2.74
                            79 2.75  28 2.92
  55  0.396  0.201  0.599-  79 2.49  30 2.54  60 2.60  50 2.64  54 2.64  24 2.64  84 2.64  56 2.65
                           121 3.02
  56  0.395  0.201  0.802-  52 2.55  31 2.58  25 2.60  61 2.60  80 2.61  51 2.62  55 2.65 121 2.66

  57  0.400  0.402  0.002-  58 2.58  52 2.59  62 2.59  86 2.60  61 2.61  80 2.61  32 2.61  31 2.62

  58  0.400  0.400  0.200-  33 2.58  57 2.58  63 2.58  81 2.59  59 2.59  27 2.59  53 2.60  87 2.60

  59  0.401  0.401  0.400-  64 2.58  54 2.59  34 2.59  58 2.59  60 2.60  82 2.60  88 2.60  28 2.61

  60  0.401  0.403  0.601-  65 2.58  35 2.58  59 2.60  55 2.60  83 2.61  61 2.62  29 2.62  89 2.66

  61  0.401  0.403  0.802-  84 2.51  36 2.56  66 2.60  56 2.60  85 2.61  57 2.61  60 2.62  30 2.62

  62  0.401  0.601  0.001-  36 2.58  91 2.59  85 2.59  57 2.59  63 2.60  67 2.60  66 2.60  37 2.60

  63  0.400  0.599  0.200-  58 2.58  64 2.59  62 2.60  86 2.60  68 2.61  32 2.61  38 2.62  92 2.62

  64  0.400  0.599  0.399-  69 2.56  59 2.58  39 2.59  63 2.59  65 2.59  87 2.59  33 2.61  93 2.63

  65  0.401  0.602  0.600-  60 2.58  70 2.58  64 2.59  40 2.59  34 2.61  88 2.61  94 2.61  66 2.61

  66  0.401  0.603  0.802-  71 2.59  90 2.59  41 2.59  61 2.60  62 2.60  35 2.61  65 2.61  89 2.63

  67  0.400  0.800  0.999-  41 2.56  68 2.58  47 2.59  73 2.59  71 2.60  62 2.60  90 2.62  42 2.74

  68  0.399  0.798  0.197-  74 2.51  37 2.55  43 2.56  67 2.58  48 2.61  63 2.61  91 2.61  69 2.62

  69  0.397  0.794  0.396-  64 2.56  70 2.60  92 2.60  44 2.62  68 2.62  38 2.63 120 2.66  49 2.68

  70  0.403  0.801  0.601-  65 2.58  93 2.60  71 2.60  69 2.60  50 2.61  45 2.62  39 2.62  75 2.68
                           120 3.01
  71  0.401  0.802  0.800-  72 2.58  66 2.59  94 2.59  51 2.59  67 2.60  40 2.60  70 2.60  46 2.62

  72  0.600  1.000  0.001-  75 2.54  73 2.55  71 2.58  76 2.59  90 2.59  47 2.60  99 2.60  95 2.66
                           119 3.00
  73  0.601  0.999  0.197-  74 2.51  72 2.55  67 2.59  96 2.60 100 2.60  91 2.61  77 2.62  48 2.65

  74  0.594  0.994  0.386-  73 2.51  68 2.51  92 2.61  97 2.61  78 2.64  49 2.65 120 2.69 122 2.70
                            91 2.91
  75  0.611  0.002  0.810-  72 2.54  94 2.54 119 2.57 118 2.59  70 2.68  51 2.68 121 2.71 120 2.71
                            95 2.88 123 3.01
  76  0.604  0.201  0.005-  77 2.55  72 2.59 102 2.59  80 2.60 119 2.61  51 2.62  52 2.63 121 2.67

  77  0.599  0.201  0.199-  78 2.54  76 2.55  53 2.59  81 2.61  47 2.61  73 2.62 103 2.62  99 2.67

  78  0.600  0.201  0.395-  79 2.50  77 2.54  82 2.60  54 2.64  74 2.64  48 2.64 104 2.64 100 2.65
                           122 3.02
  79  0.582  0.205  0.581-  83 2.47  55 2.49  78 2.50  49 2.52  54 2.75 121 2.77 122 2.77 120 2.77
                           124 2.78
  80  0.600  0.399  0.001-  81 2.58  76 2.60  56 2.61  57 2.61  84 2.62 106 2.63  85 2.65 101 2.70
                           121 2.99
  81  0.600  0.403  0.201-  80 2.58  82 2.58  86 2.58  58 2.59  52 2.60  77 2.61 102 2.61 107 2.61

  82  0.601  0.403  0.400-  87 2.58  81 2.58  59 2.60  78 2.60  83 2.61 103 2.62  53 2.62 108 2.66

  83  0.603  0.408  0.602-  79 2.47  88 2.52  60 2.61  82 2.61 104 2.62  84 2.62  54 2.69 109 2.91
                           124 2.99
  84  0.595  0.408  0.801-  61 2.51  89 2.52 105 2.56  80 2.62  83 2.62  55 2.64 121 2.68 124 2.69
                            85 2.92
  85  0.602  0.604  0.002-  90 2.57 105 2.58 111 2.58  62 2.59  86 2.59  89 2.60  61 2.61  80 2.65
                            84 2.92
  86  0.601  0.601  0.201-  81 2.58  91 2.58  85 2.59  87 2.59  57 2.60 112 2.60  63 2.60 106 2.61

  87  0.601  0.602  0.400-  82 2.58  92 2.58  64 2.59  86 2.59  58 2.60 113 2.61  88 2.61 107 2.61

  88  0.602  0.601  0.601-  83 2.52  93 2.58  59 2.60  89 2.61 108 2.61  65 2.61  87 2.61 114 2.62

  89  0.606  0.607  0.805-  84 2.52  94 2.55  85 2.60 110 2.60  88 2.61  66 2.63  60 2.66 109 2.69

  90  0.602  0.801  0.000-  94 2.56  96 2.57  85 2.57  66 2.59  72 2.59  91 2.60  67 2.62 110 2.70

  91  0.601  0.800  0.200-  86 2.58  62 2.59  90 2.60  73 2.61 111 2.61  68 2.61  97 2.62  92 2.62
                            74 2.91
  92  0.601  0.801  0.402-  87 2.58  93 2.60 112 2.60  69 2.60  74 2.61  91 2.62  63 2.62  98 2.68
                           120 3.01
  93  0.603  0.800  0.602-  88 2.58  70 2.60  92 2.60  94 2.61 113 2.61  64 2.63 118 2.65 120 2.68
                           114 2.88
  94  0.601  0.801  0.803-  75 2.54  89 2.55 114 2.56  90 2.56  71 2.59  65 2.61  93 2.61  95 2.62
                           118 3.01
  95  0.805  0.003  1.000- 118 2.50 119 2.53   6 2.57  96 2.60  94 2.62   1 2.62 110 2.63  72 2.66
                            75 2.88 114 2.92 115 2.94
  96  0.801  0.999  0.197-   2 2.52  90 2.57 111 2.59  73 2.60  95 2.60  99 2.63  97 2.63   7 2.63

  97  0.803  0.002  0.401-   3 2.59 112 2.59  74 2.61 100 2.62  91 2.62   8 2.62  96 2.63  98 2.68
                           122 3.00
  98  0.811  0.002  0.610-   4 2.54 113 2.54 116 2.57 118 2.59  92 2.68  97 2.68 122 2.71 120 2.71
                             5 2.88 123 3.01
  99  0.804  0.201  0.195- 119 2.43 100 2.58  72 2.60 102 2.60   6 2.61  10 2.62  96 2.63  77 2.67

 100  0.803  0.201  0.394-   7 2.56  99 2.58  73 2.60 103 2.60  11 2.61  97 2.62  78 2.65 122 2.66

 101  0.811  0.400  0.009-  14 2.54 102 2.55 117 2.57 119 2.57 105 2.64 121 2.70  80 2.70 124 2.70
                             9 2.87 123 2.97
 102  0.802  0.403  0.203- 101 2.55 103 2.56  15 2.58  76 2.59 106 2.60  99 2.60  81 2.61   9 2.64
                           119 3.00
 103  0.803  0.403  0.400- 104 2.51 102 2.56 107 2.60 100 2.60  16 2.61  10 2.61  82 2.62  77 2.62

 104  0.802  0.408  0.594- 103 2.51 108 2.52  17 2.56  11 2.62  83 2.62  78 2.64 122 2.68 124 2.69
                            16 2.92
 105  0.797  0.596  0.002- 106 2.54  84 2.56  18 2.57  85 2.58 109 2.60  13 2.63 101 2.64 110 2.65
                           124 2.96
 106  0.803  0.603  0.201- 105 2.54  19 2.56  14 2.58 111 2.59 107 2.59 102 2.60  86 2.61  80 2.63

 107  0.803  0.603  0.401- 112 2.59  20 2.59 106 2.59 103 2.60  15 2.60  81 2.61  87 2.61 108 2.63

 108  0.806  0.607  0.605- 104 2.52 113 2.55  16 2.60  21 2.60  88 2.61 107 2.63  82 2.66 109 2.69

 109  0.827  0.631  0.826- 114 2.59 105 2.60  17 2.60  89 2.69 108 2.69 124 2.71 110 2.74  21 2.74
                            13 2.84  83 2.91
 110  0.811  0.804  0.002-   2 2.57  89 2.60 111 2.61  95 2.63 114 2.63 105 2.65  90 2.70 109 2.74
                            18 2.84   1 2.85
 111  0.802  0.801  0.199-  85 2.58   3 2.58 106 2.59  96 2.59  18 2.61  91 2.61 110 2.61 112 2.62

 112  0.801  0.802  0.400-   4 2.58 107 2.59 113 2.59  97 2.59  19 2.60  86 2.60  92 2.60 111 2.62

 113  0.804  0.801  0.600-  98 2.54 108 2.55 114 2.56  20 2.56 112 2.59  87 2.61  93 2.61   5 2.62
                           118 3.01
 114  0.799  0.810  0.798- 118 2.39  94 2.56 113 2.56   1 2.58 109 2.59  88 2.62 110 2.63  21 2.63
                            93 2.88   5 2.92  95 2.92
 115  0.005  0.200  0.004-  27 2.52   6 2.52  33 2.54 118 2.57 119 2.61 116 2.61 117 2.62   1 2.69
                           123 2.80  95 2.94   5 2.94   9 2.95  32 2.95  28 2.97
 116  0.010  0.201  0.805-  31 2.43  32 2.51   5 2.53 123 2.53  12 2.57  98 2.57   8 2.61 115 2.61
                            27 2.93   4 3.00  36 3.00 118 3.03 117 3.05 122 3.16
 117  0.009  0.404  0.009-  38 2.42 123 2.51  32 2.51   9 2.51  12 2.57 101 2.57 115 2.62  13 2.73
                            33 2.94  37 2.99  14 2.99 119 3.05 116 3.05 124 3.16
 118  0.809  0.000  0.808- 114 2.39   5 2.50  95 2.50 123 2.53 115 2.57  75 2.59  98 2.59  93 2.65
                             1 3.00  94 3.01 113 3.01 119 3.03 116 3.03
 119  0.806  0.201  0.009-  99 2.43   9 2.51  95 2.53 123 2.53 101 2.57  75 2.57  76 2.61 115 2.61
                             6 2.93  72 3.00 102 3.00 118 3.03 117 3.05 121 3.16
 120  0.599  0.004  0.598-  69 2.66  93 2.68  74 2.69  50 2.69  98 2.71  75 2.71  79 2.77 123 2.80
                           121 2.98 122 2.98  92 3.01  70 3.01  49 3.03
 121  0.598  0.201  0.798-  56 2.66  76 2.67  84 2.68  50 2.70 101 2.70  75 2.71  79 2.77 123 2.80
                           120 2.98  80 2.99  51 3.00  55 3.02 124 3.04 119 3.16
 122  0.799  0.202  0.597- 100 2.66   8 2.67 104 2.68  74 2.70  12 2.70  98 2.71  79 2.77 123 2.80
                           120 2.98  11 2.99  97 3.00  78 3.02 124 3.04 116 3.16
 123  0.821  0.203  0.820- 117 2.51 118 2.53 116 2.53 119 2.53 115 2.80 120 2.80 122 2.80 121 2.80
                           124 2.84  12 2.97 101 2.97  75 3.01  98 3.01
 124  0.801  0.407  0.800-  13 2.66  84 2.69 104 2.69  12 2.70 101 2.70 109 2.71  79 2.78 123 2.84
                            17 2.96 105 2.96  83 2.99 122 3.04 121 3.04 117 3.16
 
  LATTYP: Found a base centered monoclinic cell.
 ALAT       =    15.0482117230
 B/A-ratio  =     1.4081981607
 C/A-ratio  =     1.6569313785
 COS(beta)  =    -0.9052205732
  
  Lattice vectors:
  
 A1 = (   4.3071057600,   6.1309426610, -10.6177469370)
 A2 = ( -12.9951470410,   0.0135483230,  -0.0223585750)
 A3 = (  13.0316404910,  -0.0404660660,  21.2572762500)


Analysis of symmetry for initial positions (statically):
=====================================================================
 Subroutine PRICEL returns:
 Original cell was already a primitive cell.
 

 Routine SETGRP: Setting up the symmetry group for a 
 base centered monoclinic supercell.


 Subroutine GETGRP returns: Found  1 space group operations
 (whereof  1 operations were pure point group operations)
 out of a pool of  4 trial point group operations.


The static configuration has the point symmetry C_1 .


Analysis of symmetry for dynamics (positions and initial velocities):
=====================================================================
 Subroutine PRICEL returns:
 Original cell was already a primitive cell.
 

 Routine SETGRP: Setting up the symmetry group for a 
 base centered monoclinic supercell.


 Subroutine GETGRP returns: Found  1 space group operations
 (whereof  1 operations were pure point group operations)
 out of a pool of  4 trial point group operations.


The dynamic configuration has the point symmetry C_1 .


 Subroutine INISYM returns: Found  1 space group operations
 (whereof  1 operations are pure point group operations),
 and found     1 'primitive' translations


----------------------------------------------------------------------------------------

                                     Primitive cell                                     

  volume of cell :    1689.3617

  direct lattice vectors                    reciprocal lattice vectors
    12.995147041 -0.013548323  0.022358575     0.076899476  0.027363571  0.046994778
    -4.344442071 12.248515902 -0.022934774     0.000004010  0.081732338  0.047195846
    -4.307105760 -6.130942661 10.617746937    -0.000161924  0.000118924  0.094184924

  length of vectors
    12.995173338 12.996185776 12.995236356     0.094184943  0.094380205  0.094185138

  position of ions in fractional coordinates (direct lattice)
     0.004054373  0.992579150  0.003182328
     0.999420279  0.005571958  0.204594324
     0.999960736  0.999196711  0.398397370
     0.001418830  0.999545179  0.598975720
     0.000879791  0.003451929  0.804481360
     0.004806830  0.200049340  0.197917753
     0.001953049  0.202310470  0.399812343
     0.005794458  0.201466403  0.603368216
     0.001033176  0.397233233  0.196686488
     0.002946307  0.401687235  0.399521363
     0.001858955  0.398899394  0.598917750
     0.009665647  0.400085296  0.809859173
     0.005828838  0.612038757  0.004949887
     0.001411237  0.603400802  0.200684507
     0.002071493  0.601317211  0.400547761
     0.003121992  0.603567607  0.600848082
     0.002874255  0.595813243  0.796257495
     0.998940668  0.800288946  0.187646171
     0.000014035  0.800125944  0.398743765
     0.001274537  0.801031653  0.601196565
     0.003312382  0.804244877  0.810358465
     0.205469998  0.005575306  0.998545540
     0.186074573  0.986620670  0.185196311
     0.195184791  0.996662090  0.394565268
     0.198126547  0.999362946  0.600180584
     0.197909640  0.998771205  0.799816278
     0.198789130  0.200052089  0.003930543
     0.201503375  0.197198143  0.200628945
     0.200400482  0.199798640  0.398611089
     0.200351290  0.201325891  0.598574993
     0.196277747  0.201243226  0.802770779
     0.197594143  0.397244346  0.000146244
     0.200335983  0.396003332  0.199456912
     0.201243729  0.400487181  0.399557984
     0.201450122  0.402501826  0.599550657
     0.203566513  0.403231150  0.801169646
     0.201576282  0.603408397  0.000529498
     0.194396056  0.592226204  0.193518095
     0.200639427  0.598877607  0.399089292
     0.201651499  0.601317756  0.600359237
     0.202248637  0.602732865  0.801875539
     0.188515805  0.800290038  0.998068572
     0.205453083  0.800539701  0.204576976
     0.197766916  0.798292875  0.398391194
     0.200654694  0.799728880  0.600619443
     0.199955591  0.800841008  0.801546358
     0.399289854  0.999197681  0.999089930
     0.395460038  0.996673987  0.194315855
     0.395039972  0.998741154  0.394155502
     0.387183313  0.994062895  0.593476354
     0.401921276  0.001943834  0.801805529
     0.400691300  0.202304029  0.001064342
     0.399491502  0.199805634  0.199520713
     0.396390336  0.199229505  0.395504487
     0.395562113  0.201277779  0.598719492
     0.394885276  0.200952254  0.802155087
     0.400408927  0.401681972  0.002047507
     0.400435451  0.400499226  0.200360039
     0.401133771  0.401270600  0.400249158
     0.400545377  0.403430454  0.600580990
     0.400951750  0.403059205  0.802037326
     0.401441853  0.601312725  0.001157996
     0.399966995  0.598884289  0.199756370
     0.399907745  0.598950272  0.399037145
     0.401181810  0.601641017  0.599906806
     0.401445359  0.603209018  0.801662421
     0.399647199  0.800123338  0.999126761
     0.399274904  0.798282941  0.196870507
     0.397037828  0.794019282  0.396167236
     0.402750826  0.801206694  0.600528587
     0.401292464  0.801710412  0.800277570
     0.599891178  0.999557828  0.000537018
     0.601057617  0.999367703  0.197250577
     0.594390284  0.994055173  0.386297464
     0.610687541  0.001873025  0.809765848
     0.604264345  0.201459737  0.004897456
     0.599463375  0.201339052  0.199460821
     0.599602131  0.201288982  0.394677919
     0.581993835  0.204691245  0.581122533
     0.599809873  0.398870914  0.000950966
     0.600434223  0.402505871  0.200526208
     0.601467899  0.403438680  0.399618190
     0.602928276  0.407716537  0.602040179
     0.595278192  0.408224906  0.801456564
     0.601737741  0.603548833  0.002202751
     0.601229700  0.601317353  0.200719461
     0.600780766  0.601642048  0.400270034
     0.601789618  0.600613801  0.600909950
     0.606222993  0.606753850  0.804962817
     0.602086103  0.801031568  0.000371990
     0.601493354  0.799727469  0.199738518
     0.601395498  0.801194483  0.401859160
     0.602993037  0.800225195  0.602109935
     0.601137650  0.800795331  0.802690583
     0.805380974  0.003469106  0.999998342
     0.800678185  0.998771753  0.197024832
     0.802691478  0.001948023  0.401014233
     0.810655913  0.001856626  0.609759067
     0.803655791  0.201247686  0.195401810
     0.803038247  0.200978879  0.394006811
     0.810744005  0.400063554  0.008754050
     0.802059108  0.403228584  0.202656465
     0.802928037  0.403074275  0.400023858
     0.802330417  0.408246654  0.594333630
     0.797154337  0.595801370  0.001978888
     0.802761088  0.602732606  0.201335081
     0.802550639  0.603211591  0.400511583
     0.805841349  0.606762422  0.605316602
     0.826862966  0.630902797  0.825975811
     0.811249192  0.804231055  0.002411668
     0.802411953  0.800838340  0.199060711
     0.801148542  0.801698085  0.400362172
     0.803584251  0.800774474  0.600226076
     0.798984542  0.809890946  0.798092153
     0.005294498  0.200070005  0.004402081
     0.009916368  0.201274713  0.805315339
     0.009437577  0.404213141  0.008537548
     0.808741011  0.000122967  0.807838101
     0.806219606  0.201273572  0.009013234
     0.599048700  0.003593506  0.598142768
     0.598231969  0.201473049  0.797613201
     0.798515273  0.201500211  0.597335549
     0.820838784  0.202695091  0.819924983
     0.801123489  0.406892483  0.800218734

  ion indices of the primitive-cell ions
   primitive index   ion index
                 1           1
                 2           2
                 3           3
                 4           4
                 5           5
                 6           6
                 7           7
                 8           8
                 9           9
                10          10
                11          11
                12          12
                13          13
                14          14
                15          15
                16          16
                17          17
                18          18
                19          19
                20          20
                21          21
                22          22
                23          23
                24          24
                25          25
                26          26
                27          27
                28          28
                29          29
                30          30
                31          31
                32          32
                33          33
                34          34
                35          35
                36          36
                37          37
                38          38
                39          39
                40          40
                41          41
                42          42
                43          43
                44          44
                45          45
                46          46
                47          47
                48          48
                49          49
                50          50
                51          51
                52          52
                53          53
                54          54
                55          55
                56          56
                57          57
                58          58
                59          59
                60          60
                61          61
                62          62
                63          63
                64          64
                65          65
                66          66
                67          67
                68          68
                69          69
                70          70
                71          71
                72          72
                73          73
                74          74
                75          75
                76          76
                77          77
                78          78
                79          79
                80          80
                81          81
                82          82
                83          83
                84          84
                85          85
                86          86
                87          87
                88          88
                89          89
                90          90
                91          91
                92          92
                93          93
                94          94
                95          95
                96          96
                97          97
                98          98
                99          99
               100         100
               101         101
               102         102
               103         103
               104         104
               105         105
               106         106
               107         107
               108         108
               109         109
               110         110
               111         111
               112         112
               113         113
               114         114
               115         115
               116         116
               117         117
               118         118
               119         119
               120         120
               121         121
               122         122
               123         123
               124         124

----------------------------------------------------------------------------------------

 
 
 KPOINTS: KPOINTS created by Atomic Simulation Env

Automatic generation of k-mesh.
 Grid dimensions read from file:
 generate k-points for:    4    4    4

 Generating k-lattice:

  Cartesian coordinates                     Fractional coordinates (reciprocal lattice)
     0.019224869  0.006840893  0.011748694     0.250000000 -0.000000000 -0.000000000
     0.000001002  0.020433085  0.011798961     0.000000000  0.250000000  0.000000000
    -0.000040481  0.000029731  0.023546231     0.000000000  0.000000000  0.250000000

  Length of vectors
     0.023546236  0.023595051  0.023546285

  Shift w.r.t. Gamma in fractional coordinates (k-lattice)
     0.000000000  0.000000000  0.000000000

 
 Subroutine IBZKPT returns following result:
 ===========================================
 
 Found     36 irreducible k-points:
 
 Following reciprocal coordinates:
            Coordinates               Weight
  0.000000  0.000000  0.000000      1.000000
  0.250000  0.000000  0.000000      2.000000
  0.000000  0.000000 -0.250000      2.000000
  0.500000  0.000000  0.000000      1.000000
  0.000000  0.000000  0.500000      1.000000
  0.000000  0.250000  0.000000      2.000000
  0.250000  0.250000  0.000000      2.000000
  0.000000 -0.250000 -0.250000      2.000000
  0.500000  0.250000  0.000000      2.000000
  0.000000 -0.250000  0.500000      2.000000
 -0.250000  0.250000  0.000000      2.000000
  0.000000 -0.250000  0.250000      2.000000
  0.000000  0.500000  0.000000      1.000000
  0.250000  0.500000  0.000000      2.000000
  0.000000  0.500000 -0.250000      2.000000
  0.500000  0.500000  0.000000      1.000000
  0.000000  0.500000  0.500000      1.000000
  0.250000  0.000000  0.250000      2.000000
  0.500000  0.000000  0.250000      2.000000
 -0.250000  0.000000  0.500000      2.000000
 -0.250000  0.000000  0.250000      2.000000
  0.250000  0.250000  0.250000      2.000000
  0.500000  0.250000  0.250000      2.000000
 -0.250000 -0.250000  0.500000      2.000000
 -0.250000  0.250000  0.250000      2.000000
 -0.250000 -0.250000  0.250000      2.000000
  0.250000  0.500000  0.250000      2.000000
  0.500000  0.500000  0.250000      2.000000
 -0.250000  0.500000  0.500000      2.000000
 -0.250000  0.500000  0.250000      2.000000
  0.250000 -0.250000  0.250000      2.000000
  0.500000 -0.250000  0.250000      2.000000
 -0.250000  0.250000  0.500000      2.000000
  0.500000  0.000000  0.500000      1.000000
  0.500000  0.250000  0.500000      2.000000
  0.500000  0.500000  0.500000      1.000000
 
 Following cartesian coordinates:
            Coordinates               Weight
  0.000000  0.000000  0.000000      1.000000
  0.019225  0.006841  0.011749      2.000000
  0.000040 -0.000030 -0.023546      2.000000
  0.038450  0.013682  0.023497      1.000000
 -0.000081  0.000059  0.047092      1.000000
  0.000001  0.020433  0.011799      2.000000
  0.019226  0.027274  0.023548      2.000000
  0.000039 -0.020463 -0.035345      2.000000
  0.038451  0.034115  0.035296      2.000000
 -0.000082 -0.020374  0.035294      2.000000
 -0.019224  0.013592  0.000050      2.000000
 -0.000041 -0.020403  0.011747      2.000000
  0.000002  0.040866  0.023598      1.000000
  0.019227  0.047707  0.035347      2.000000
  0.000042  0.040836  0.000052      2.000000
  0.038452  0.054548  0.047095      1.000000
 -0.000079  0.040926  0.070690      1.000000
  0.019184  0.006871  0.035295      2.000000
  0.038409  0.013712  0.047044      2.000000
 -0.019306 -0.006781  0.035344      2.000000
 -0.019265 -0.006811  0.011798      2.000000
  0.019185  0.027304  0.047094      2.000000
  0.038410  0.034145  0.058843      2.000000
 -0.019307 -0.027215  0.023545      2.000000
 -0.019264  0.013622  0.023596      2.000000
 -0.019266 -0.027244 -0.000001      2.000000
  0.019186  0.047737  0.058893      2.000000
  0.038411  0.054578  0.070642      2.000000
 -0.019304  0.034085  0.058942      2.000000
 -0.019263  0.034055  0.035395      2.000000
  0.019183 -0.013562  0.023496      2.000000
  0.038408 -0.006722  0.035245      2.000000
 -0.019305  0.013652  0.047143      2.000000
  0.038369  0.013741  0.070590      1.000000
  0.038370  0.034174  0.082389      2.000000
  0.038371  0.054607  0.094188      1.000000
 


--------------------------------------------------------------------------------------------------------




 Dimension of arrays:
   k-points           NKPTS =     36   k-points in BZ     NKDIM =     36   number of bands    NBANDS=    820
   number of dos      NEDOS =    301   number of ions     NIONS =    124
   non local maximal  LDIM  =      6   non local SUM 2l+1 LMDIM =     18
   total plane-waves  NPLWV = 941192
   max r-space proj   IRMAX =      1   max aug-charges    IRDMAX=  21827
   dimension x,y,z NGX =    98 NGY =   98 NGZ =   98
   dimension x,y,z NGXF=   196 NGYF=  196 NGZF=  196
   support grid    NGXF=   196 NGYF=  196 NGZF=  196
   ions per type =             114   5   5
   NGX,Y,Z   is equivalent  to a cutoff of  12.54, 12.54, 12.54 a.u.
   NGXF,Y,Z  is equivalent  to a cutoff of  25.07, 25.07, 25.07 a.u.

 SYSTEM =  unknown system                          
 POSCAR =  V  Cr Ti                                

 Startparameter for this run:
   NWRITE =      2    write-flag & timer
   PREC   = accura    normal or accurate (medium, high low for compatibility)
   ISTART =      0    job   : 0-new  1-cont  2-samecut
   ICHARG =      2    charge: 1-file 2-atom 10-const
   ISPIN  =      1    spin polarized calculation?
   LNONCOLLINEAR =      F non collinear calculations
   LSORBIT =      F    spin-orbit coupling
   INIWAV =      1    electr: 0-lowe 1-rand  2-diag
   LASPH  =      F    aspherical Exc in radial PAW
 Electronic Relaxation 1
   ENCUT  =  520.0 eV  38.22 Ry    6.18 a.u.  24.16 24.16 24.16*2*pi/ulx,y,z
   ENINI  =  520.0     initial cutoff
   ENAUG  =  598.5 eV  augmentation charge cutoff
   NELM   =    100;   NELMIN=  2; NELMDL= -5     # of ELM steps 
   EDIFF  = 0.1E-05   stopping-criterion for ELM
   LREAL  =      F    real-space projection
   NLSPLINE    = F    spline interpolate recip. space projectors
   LCOMPAT=      F    compatible to vasp.4.4
   GGA_COMPAT  = T    GGA compatible to vasp.4.4-vasp.4.6
   LMAXPAW     = -100 max onsite density
   LMAXMIX     =    2 max onsite mixed and CHGCAR
   VOSKOWN=      0    Vosko Wilk Nusair interpolation
   ROPT   =    0.00000   0.00000   0.00000
 Ionic relaxation
   EDIFFG = -.1E-01   stopping-criterion for IOM
   NSW    =     -1    number of steps for IOM
   NBLOCK =      1;   KBLOCK =      1    inner block; outer block 
   IBRION =      2    ionic relax: 0-MD 1-quasi-New 2-CG
   NFREE  =      1    steps in history (QN), initial steepest desc. (CG)
   ISIF   =      2    stress and relaxation
   IWAVPR =     11    prediction:  0-non 1-charg 2-wave 3-comb
   ISYM   =      2    0-nonsym 1-usesym 2-fastsym
   LCORR  =      T    Harris-Foulkes like correction to forces

   POTIM  = 0.2000    time-step for ionic-motion
   TEIN   =    0.0    initial temperature
   TEBEG  =    0.0;   TEEND  =   0.0 temperature during run
   SMASS  =  -3.00    Nose mass-parameter (am)
   estimated Nose-frequenzy (Omega)   =  0.10E-29 period in steps = 0.31E+47 mass=  -0.386E-26a.u.
   SCALEE = 1.0000    scale energy and forces
   NPACO  =    256;   APACO  = 10.0  distance and # of slots for P.C.
   PSTRESS=    0.0 pullay stress

  Mass of Ions in am
   POMASS =  50.94 52.00 47.88
  Ionic Valenz
   ZVAL   =  11.00 12.00 10.00
  Atomic Wigner-Seitz radii
   RWIGS  =  -1.00 -1.00 -1.00
  virtual crystal weights 
   VCA    =   1.00  1.00  1.00
   NELECT =    1364.0000    total number of electrons
   NUPDOWN=      -1.0000    fix difference up-down

 DOS related values:
   EMIN   =  10.00;   EMAX   =-10.00  energy-range for DOS
   EFERMI =   0.00;   METHOD = LEGACY      
   ISMEAR =     1;   SIGMA  =   0.20  broadening in eV -4-tet -1-fermi 0-gaus

 Electronic relaxation 2 (details)
   IALGO  =     38    algorithm
   LDIAG  =      T    sub-space diagonalisation (order eigenvalues)
   LSUBROT=      F    optimize rotation matrix (better conditioning)
   TURBO    =      0    0=normal 1=particle mesh
   IRESTART =      0    0=no restart 2=restart with 2 vectors
   NREBOOT  =      0    no. of reboots
   NMIN     =      0    reboot dimension
   EREF     =   0.00    reference energy to select bands
   IMIX   =      4    mixing-type and parameters
     AMIX     =   0.40;   BMIX     =  1.00
     AMIX_MAG =   1.60;   BMIX_MAG =  1.00
     AMIN     =   0.10
     WC   =   100.;   INIMIX=   1;  MIXPRE=   1;  MAXMIX= -45

 Intra band minimization:
   WEIMIN = 0.0010     energy-eigenvalue tresh-hold
   EBREAK =  0.30E-09  absolut break condition
   DEPER  =   0.30     relativ break condition  

   TIME   =   0.40     timestep for ELM

  volume/ion in A,a.u.               =      13.62        91.94
  Fermi-wavevector in a.u.,A,eV,Ry     =   1.524423  2.880741 31.618097  2.323865
  Thomas-Fermi vector in A             =   2.632732
 
 Write flags
   LWAVE        =      F    write WAVECAR
   LDOWNSAMPLE  =      F    k-point downsampling of WAVECAR
   LCHARG       =      T    write CHGCAR
   LVTOT        =      F    write LOCPOT, total local potential
   LVHAR        =      F    write LOCPOT, Hartree potential only
   LELF         =      F    write electronic localiz. function (ELF)
   LORBIT       =     11    0 simple, 1 ext, 2 COOP (PROOUT), +10 PAW based schemes


 Dipole corrections
   LMONO  =      F    monopole corrections only (constant potential shift)
   LDIPOL =      F    correct potential (dipole corrections)
   IDIPOL =      0    1-x, 2-y, 3-z, 4-all directions 
   EPSILON=  1.0000000 bulk dielectric constant

 Exchange correlation treatment:
   GGA     =    PE    GGA type
   LEXCH   =     8    internal setting for exchange type
   LIBXC   =     F    Libxc                    
   VOSKOWN =     0    Vosko Wilk Nusair interpolation
   LHFCALC =     F    Hartree Fock is set to
   LHFONE  =     F    Hartree Fock one center treatment
   AEXX    =    0.0000 exact exchange contribution

 Linear response parameters
   LEPSILON=     F    determine dielectric tensor
   LRPA    =     F    only Hartree local field effects (RPA)
   LNABLA  =     F    use nabla operator in PAW spheres
   LVEL    =     F    velocity operator in full k-point grid
   CSHIFT  =0.1000    complex shift for real part using Kramers Kronig
   OMEGAMAX=  -1.0    maximum frequency
   DEG_THRESHOLD= 0.2000000E-02 threshold for treating states as degnerate
   RTIME   =   -0.100 relaxation time in fs
  (WPLASMAI=    0.000 imaginary part of plasma frequency in eV, 0.658/RTIME)
   DFIELD  = 0.0000000 0.0000000 0.0000000 field for delta impulse in time
 
  Optional k-point grid parameters
   LKPOINTS_OPT  =     F    use optional k-point grid
   KPOINTS_OPT_MODE=     1    mode for optional k-point grid
 
 Orbital magnetization related:
   ORBITALMAG=     F  switch on orbital magnetization
   LCHIMAG   =     F  perturbation theory with respect to B field
   DQ        =  0.001000  dq finite difference perturbation B field
   LLRAUG    =     F  two centre corrections for induced B field
   LBONE     =     F  B-component reconstruction in AE one-centre
   LVGVCALC  =     T  calculate vGv susceptibility
   LVGVAPPL  =     F  apply vGv susceptibility instead of pGv for G=0

 Random number generation:
   RANDOM_GENERATOR = DEFAULT
   PCG_SEED         = not used


--------------------------------------------------------------------------------------------------------


 conjugate gradient relaxation of ions
 charge density and potential will be updated during run
 non-spin polarized calculation
 Variant of blocked Davidson
 Davidson routine will perform the subspace rotation
 perform sub-space diagonalisation
    after iterative eigenvector-optimisation
 modified Broyden-mixing scheme, WC =      100.0
 initial mixing is a Kerker type mixing with AMIX =  0.4000 and BMIX =      1.0000
 Hartree-type preconditioning will be used
 using additional bands           138
 reciprocal scheme for non local part
 use partial core corrections
 calculate Harris-corrections to forces 
   (improved forces if not selfconsistent)
 use gradient corrections 
 use of overlap-Matrix (Vanderbilt PP)
 Methfessel and Paxton  Order N= 1 SIGMA  =   0.20


--------------------------------------------------------------------------------------------------------


  energy-cutoff  :      520.00
  volume of cell :     1689.36
      direct lattice vectors                 reciprocal lattice vectors
    12.995147041 -0.013548323  0.022358575     0.076899476  0.027363571  0.046994778
    -4.344442071 12.248515902 -0.022934774     0.000004010  0.081732338  0.047195846
    -4.307105760 -6.130942661 10.617746937    -0.000161924  0.000118924  0.094184924

  length of vectors
    12.995173338 12.996185776 12.995236356     0.094184943  0.094380205  0.094185138


 
 k-points in units of 2pi/SCALE and weight: KPOINTS created by Atomic Simulation Env
   0.00000000  0.00000000  0.00000000       0.016
   0.01922487  0.00684089  0.01174869       0.031
   0.00004048 -0.00002973 -0.02354623       0.031
   0.03844974  0.01368179  0.02349739       0.016
  -0.00008096  0.00005946  0.04709246       0.016
   0.00000100  0.02043308  0.01179896       0.031
   0.01922587  0.02727398  0.02354766       0.031
   0.00003948 -0.02046282 -0.03534519       0.031
   0.03845074  0.03411487  0.03529635       0.031
  -0.00008196 -0.02037362  0.03529350       0.031
  -0.01922387  0.01359219  0.00005027       0.031
  -0.00004148 -0.02040335  0.01174727       0.031
   0.00000200  0.04086617  0.02359792       0.016
   0.01922687  0.04770706  0.03534662       0.031
   0.00004249  0.04083644  0.00005169       0.031
   0.03845174  0.05454795  0.04709531       0.016
  -0.00007896  0.04092563  0.07069039       0.016
   0.01918439  0.00687062  0.03529493       0.031
   0.03840926  0.01371152  0.04704362       0.031
  -0.01930583 -0.00678143  0.03534377       0.031
  -0.01926535 -0.00681116  0.01179754       0.031
   0.01918539  0.02730371  0.04709389       0.031
   0.03841026  0.03414460  0.05884258       0.031
  -0.01930683 -0.02721452  0.02354481       0.031
  -0.01926435  0.01362192  0.02359650       0.031
  -0.01926635 -0.02724425 -0.00000142       0.031
   0.01918639  0.04773679  0.05889285       0.031
   0.03841126  0.05457769  0.07064154       0.031
  -0.01930383  0.03408474  0.05894169       0.031
  -0.01926335  0.03405501  0.03539546       0.031
   0.01918339 -0.01356246  0.02349596       0.031
   0.03840825 -0.00672157  0.03524466       0.031
  -0.01930483  0.01365165  0.04714273       0.031
   0.03836878  0.01374125  0.07058985       0.016
   0.03836978  0.03417433  0.08238881       0.031
   0.03837078  0.05460742  0.09418777       0.016
 
 k-points in reciprocal lattice and weights: KPOINTS created by Atomic Simulation Env
   0.00000000  0.00000000  0.00000000       0.016
   0.25000000  0.00000000  0.00000000       0.031
   0.00000000  0.00000000 -0.25000000       0.031
   0.50000000  0.00000000  0.00000000       0.016
   0.00000000  0.00000000  0.50000000       0.016
   0.00000000  0.25000000  0.00000000       0.031
   0.25000000  0.25000000  0.00000000       0.031
   0.00000000 -0.25000000 -0.25000000       0.031
   0.50000000  0.25000000  0.00000000       0.031
   0.00000000 -0.25000000  0.50000000       0.031
  -0.25000000  0.25000000  0.00000000       0.031
   0.00000000 -0.25000000  0.25000000       0.031
   0.00000000  0.50000000  0.00000000       0.016
   0.25000000  0.50000000  0.00000000       0.031
   0.00000000  0.50000000 -0.25000000       0.031
   0.50000000  0.50000000  0.00000000       0.016
   0.00000000  0.50000000  0.50000000       0.016
   0.25000000  0.00000000  0.25000000       0.031
   0.50000000  0.00000000  0.25000000       0.031
  -0.25000000  0.00000000  0.50000000       0.031
  -0.25000000  0.00000000  0.25000000       0.031
   0.25000000  0.25000000  0.25000000       0.031
   0.50000000  0.25000000  0.25000000       0.031
  -0.25000000 -0.25000000  0.50000000       0.031
  -0.25000000  0.25000000  0.25000000       0.031
  -0.25000000 -0.25000000  0.25000000       0.031
   0.25000000  0.50000000  0.25000000       0.031
   0.50000000  0.50000000  0.25000000       0.031
  -0.25000000  0.50000000  0.50000000       0.031
  -0.25000000  0.50000000  0.25000000       0.031
   0.25000000 -0.25000000  0.25000000       0.031
   0.50000000 -0.25000000  0.25000000       0.031
  -0.25000000  0.25000000  0.50000000       0.031
   0.50000000  0.00000000  0.50000000       0.016
   0.50000000  0.25000000  0.50000000       0.031
   0.50000000  0.50000000  0.50000000       0.016
 
 position of ions in fractional coordinates (direct lattice) 
   0.00405437  0.99257915  0.00318233
   0.99942028  0.00557196  0.20459432
   0.99996074  0.99919671  0.39839737
   0.00141883  0.99954518  0.59897572
   0.00087979  0.00345193  0.80448136
   0.00480683  0.20004934  0.19791775
   0.00195305  0.20231047  0.39981234
   0.00579446  0.20146640  0.60336822
   0.00103318  0.39723323  0.19668649
   0.00294631  0.40168724  0.39952136
   0.00185896  0.39889939  0.59891775
   0.00966565  0.40008530  0.80985917
   0.00582884  0.61203876  0.00494989
   0.00141124  0.60340080  0.20068451
   0.00207149  0.60131721  0.40054776
   0.00312199  0.60356761  0.60084808
   0.00287425  0.59581324  0.79625749
   0.99894067  0.80028895  0.18764617
   0.00001403  0.80012594  0.39874377
   0.00127454  0.80103165  0.60119656
   0.00331238  0.80424488  0.81035847
   0.20547000  0.00557531  0.99854554
   0.18607457  0.98662067  0.18519631
   0.19518479  0.99666209  0.39456527
   0.19812655  0.99936295  0.60018058
   0.19790964  0.99877121  0.79981628
   0.19878913  0.20005209  0.00393054
   0.20150338  0.19719814  0.20062895
   0.20040048  0.19979864  0.39861109
   0.20035129  0.20132589  0.59857499
   0.19627775  0.20124323  0.80277078
   0.19759414  0.39724435  0.00014624
   0.20033598  0.39600333  0.19945691
   0.20124373  0.40048718  0.39955798
   0.20145012  0.40250183  0.59955066
   0.20356651  0.40323115  0.80116965
   0.20157628  0.60340840  0.00052950
   0.19439606  0.59222620  0.19351809
   0.20063943  0.59887761  0.39908929
   0.20165150  0.60131776  0.60035924
   0.20224864  0.60273287  0.80187554
   0.18851581  0.80029004  0.99806857
   0.20545308  0.80053970  0.20457698
   0.19776692  0.79829288  0.39839119
   0.20065469  0.79972888  0.60061944
   0.19995559  0.80084101  0.80154636
   0.39928985  0.99919768  0.99908993
   0.39546004  0.99667399  0.19431585
   0.39503997  0.99874115  0.39415550
   0.38718331  0.99406290  0.59347635
   0.40192128  0.00194383  0.80180553
   0.40069130  0.20230403  0.00106434
   0.39949150  0.19980563  0.19952071
   0.39639034  0.19922950  0.39550449
   0.39556211  0.20127778  0.59871949
   0.39488528  0.20095225  0.80215509
   0.40040893  0.40168197  0.00204751
   0.40043545  0.40049923  0.20036004
   0.40113377  0.40127060  0.40024916
   0.40054538  0.40343045  0.60058099
   0.40095175  0.40305920  0.80203733
   0.40144185  0.60131272  0.00115800
   0.39996699  0.59888429  0.19975637
   0.39990774  0.59895027  0.39903714
   0.40118181  0.60164102  0.59990681
   0.40144536  0.60320902  0.80166242
   0.39964720  0.80012334  0.99912676
   0.39927490  0.79828294  0.19687051
   0.39703783  0.79401928  0.39616724
   0.40275083  0.80120669  0.60052859
   0.40129246  0.80171041  0.80027757
   0.59989118  0.99955783  0.00053702
   0.60105762  0.99936770  0.19725058
   0.59439028  0.99405517  0.38629746
   0.61068754  0.00187302  0.80976585
   0.60426434  0.20145974  0.00489746
   0.59946337  0.20133905  0.19946082
   0.59960213  0.20128898  0.39467792
   0.58199384  0.20469124  0.58112253
   0.59980987  0.39887091  0.00095097
   0.60043422  0.40250587  0.20052621
   0.60146790  0.40343868  0.39961819
   0.60292828  0.40771654  0.60204018
   0.59527819  0.40822491  0.80145656
   0.60173774  0.60354883  0.00220275
   0.60122970  0.60131735  0.20071946
   0.60078077  0.60164205  0.40027003
   0.60178962  0.60061380  0.60090995
   0.60622299  0.60675385  0.80496282
   0.60208610  0.80103157  0.00037199
   0.60149335  0.79972747  0.19973852
   0.60139550  0.80119448  0.40185916
   0.60299304  0.80022520  0.60210994
   0.60113765  0.80079533  0.80269058
   0.80538097  0.00346911  0.99999834
   0.80067818  0.99877175  0.19702483
   0.80269148  0.00194802  0.40101423
   0.81065591  0.00185663  0.60975907
   0.80365579  0.20124769  0.19540181
   0.80303825  0.20097888  0.39400681
   0.81074400  0.40006355  0.00875405
   0.80205911  0.40322858  0.20265646
   0.80292804  0.40307427  0.40002386
   0.80233042  0.40824665  0.59433363
   0.79715434  0.59580137  0.00197889
   0.80276109  0.60273261  0.20133508
   0.80255064  0.60321159  0.40051158
   0.80584135  0.60676242  0.60531660
   0.82686297  0.63090280  0.82597581
   0.81124919  0.80423105  0.00241167
   0.80241195  0.80083834  0.19906071
   0.80114854  0.80169808  0.40036217
   0.80358425  0.80077447  0.60022608
   0.79898454  0.80989095  0.79809215
   0.00529450  0.20007001  0.00440208
   0.00991637  0.20127471  0.80531534
   0.00943758  0.40421314  0.00853755
   0.80874101  0.00012297  0.80783810
   0.80621961  0.20127357  0.00901323
   0.59904870  0.00359351  0.59814277
   0.59823197  0.20147305  0.79761320
   0.79851527  0.20150021  0.59733555
   0.82083878  0.20269509  0.81992498
   0.80112349  0.40689248  0.80021873
 
 position of ions in cartesian coordinates  (Angst):
  -4.27322207 12.13805590  0.01111523
  12.08219704 -1.19964832  2.19454857
   6.93774497  9.78257758  4.22952380
  -6.90388000  8.57064000  6.33688000
  -3.46855000 -4.88996000  8.54172000
  -1.65909000  1.23682000  2.09696000
  -2.57558000  0.02675000  4.24051000
  -3.39873000 -1.23163000  6.40192000
  -2.55948000  3.65963000  2.07928000
  -3.42760000  2.47059000  4.23287000
  -4.28844000  1.21397000  6.35005000
  -5.10069000 -0.06488000  8.58992000
  -2.60454000  7.46614000  0.03865000
  -3.46747000  6.16036000  2.11701000
  -4.31067000  4.90948000  4.23917000
  -5.16951000  3.70900000  6.36588000
  -5.98069000  2.41598000  8.44086000
   8.69636000  8.63837000  1.99636000
  -5.19335000  7.35568000  4.21541000
  -6.05289000  6.12553000  6.36501000
  -6.94125000  4.88250000  8.58581000
  -1.65495000 -6.05652000 10.60677000
  -2.66591000 10.94669000  1.94790000
  -3.49292000  9.78593000  4.17090000
  -4.35203207  8.55835590  6.35407523
  -5.21213207  7.32715590  8.47376523
   1.69725000  2.42355000  0.04159000
   0.89772000  1.18261000  2.13021000
   0.01936000  0.00066000  4.23225000
  -0.84918000 -1.20660000  6.35538000
  -1.78125000 -2.45947000  8.52339000
   0.84133000  4.86208000 -0.00314000
   0.02390000  3.62488000  2.11318000
  -0.84564000  2.45298000  4.23772000
  -1.71310000  1.25151000  6.36115000
  -2.55716000  0.02430000  8.50192000
  -0.00424000  7.38488000 -0.00371000
  -0.88019000  6.06481000  2.04549000
  -1.71337000  4.88585000  4.22818000
  -2.57771000  3.68175000  6.36518000
  -3.44405000  2.46359000  8.50481000
  -5.32581000  3.68071000 10.58310000
  -1.68914000  8.54839000  2.15838000
  -2.61404000  7.33271000  4.21613000
  -3.45377000  6.11041000  6.36337000
  -4.33310000  4.89217000  8.49672000
  -3.45531207  6.10791590 10.59409523
  -0.02787000 11.01108000  2.04918000
  -0.90304000  9.81120000  4.17097000
  -1.84331000  8.53198000  6.28724000
   1.76112000 -4.89746000  8.52231000
   4.32356000  2.46597000  0.01562000
   3.46405000  1.21866000  2.12281000
   2.58213000  0.01008000  4.20366000
   1.68720000 -1.21072000  6.36128000
   0.80360000 -2.46195000  8.52130000
   3.44947000  4.90203000  0.02148000
   2.60080000  3.67170000  2.12714000
   1.74558000  2.45563000  4.24951000
   0.86570000  1.25387000  6.37652000
   0.00490000  0.01420000  8.51555000
   2.59944000  7.35265000  0.00748000
   1.73544000  6.10533000  2.11617000
   0.87606000  4.88436000  4.23208000
   0.01576000  3.68578000  6.36483000
  -0.85661000  2.46803000  8.50699000
  -2.58596000  3.66932000 10.59906000
   0.87260000  8.56537000  2.08094000
   0.00366000  7.29130000  4.19707000
  -0.83353000  6.12633000  6.36689000
  -1.71501000  4.90787000  8.48773000
   3.45084000 12.23168000 -0.00381000
   2.61955793 11.02329590  2.08487523
   1.74175000  9.79928000  4.09210000
   4.44009000 -4.94996000  8.61150000
   6.95618000  2.42937000  0.06089000
   6.05631000  1.23510000  2.12661000
   5.21751000  0.03762000  4.19938000
   4.17087000 -1.06355000  6.17853000
   6.05765000  4.87162000  0.01436000
   5.19038000  3.69255000  2.13333000
   4.34225000  2.48334000  4.24724000
   3.47079000  1.29468000  6.39644000
   2.51026000  0.07840000  8.51361000
   5.18810000  7.37092000  0.02300000
   4.33616000  6.12650000  2.13084000
   3.46943000  4.90705000  4.24960000
   2.62283000  3.66433000  6.37999000
   1.77489000  2.48844000  8.54653000
   4.34256000  9.80101000 -0.00096000
   3.48183000  8.56274000  2.11588000
   2.60363000  7.34152000  4.26191000
   1.76610000  6.10190000  6.38818000
   0.87559000  4.87916000  8.51784000
   6.14387424 -6.09935266 10.63565694
   5.21721793 11.01467590  2.08695523
   8.69542000 -2.44561000  4.27577000
   7.90023000 -3.72664000  6.49235000
   8.72770000  1.25610000  2.08808000
   7.86543000  0.03518000  4.19681000
   8.75998000  4.83553000  0.10190000
   7.79821000  3.68561000  2.16044000
   6.96009000  2.47366000  4.25606000
   6.09294000  1.34572000  6.31906000
   7.76219000  7.27475000  0.02517000
   6.94629000  6.13733000  2.14185000
   6.08360000  4.92206000  4.25664000
   5.22882000  3.70986000  6.43120000
   4.44672000  2.65241000  8.77402000
   7.03798000  9.82486000  0.02530000
   6.09089000  8.57778000  2.11315000
   5.20371000  7.35416000  4.25047000
   4.37854000  6.11746000  6.37265000
   3.42693000  5.01608000  8.47323000
  -0.81935000  2.42350000  0.04227000
  -4.21414000 -2.47216000  8.54624000
  -1.67021000  4.89854000  0.08159000
   7.02973000 -4.96226000  8.59550000
   9.56370000  2.39912000  0.10911000
   5.19285000 -3.63128000  6.36424000
   3.46342000 -2.43048000  8.47761000
   6.92863000 -1.20497000  6.35559000
   6.25482000 -2.55532000  8.71946000
   5.19637000  0.06688000  8.50510000
 


--------------------------------------------------------------------------------------------------------


 k-point   1 :   0.0000 0.0000 0.0000  plane waves:   45567
 k-point   2 :   0.2500 0.0000 0.0000  plane waves:   45468
 k-point   3 :   0.0000 0.0000-0.2500  plane waves:   45468
 k-point   4 :   0.5000 0.0000 0.0000  plane waves:   45464
 k-point   5 :   0.0000 0.0000 0.5000  plane waves:   45464
 k-point   6 :   0.0000 0.2500 0.0000  plane waves:   45468
 k-point   7 :   0.2500 0.2500 0.0000  plane waves:   45502
 k-point   8 :   0.0000-0.2500-0.2500  plane waves:   45502
 k-point   9 :   0.5000 0.2500 0.0000  plane waves:   45494
 k-point  10 :   0.0000-0.2500 0.5000  plane waves:   45494
 k-point  11 :  -0.2500 0.2500 0.0000  plane waves:   45469
 k-point  12 :   0.0000-0.2500 0.2500  plane waves:   45470
 k-point  13 :   0.0000 0.5000 0.0000  plane waves:   45472
 k-point  14 :   0.2500 0.5000 0.0000  plane waves:   45502
 k-point  15 :   0.0000 0.5000-0.2500  plane waves:   45502
 k-point  16 :   0.5000 0.5000 0.0000  plane waves:   45470
 k-point  17 :   0.0000 0.5000 0.5000  plane waves:   45470
 k-point  18 :   0.2500 0.0000 0.2500  plane waves:   45497
 k-point  19 :   0.5000 0.0000 0.2500  plane waves:   45499
 k-point  20 :  -0.2500 0.0000 0.5000  plane waves:   45499
 k-point  21 :  -0.2500 0.0000 0.2500  plane waves:   45470
 k-point  22 :   0.2500 0.2500 0.2500  plane waves:   45516
 k-point  23 :   0.5000 0.2500 0.2500  plane waves:   45501
 k-point  24 :  -0.2500-0.2500 0.5000  plane waves:   45501
 k-point  25 :  -0.2500 0.2500 0.2500  plane waves:   45454
 k-point  26 :  -0.2500-0.2500 0.2500  plane waves:   45454
 k-point  27 :   0.2500 0.5000 0.2500  plane waves:   45493
 k-point  28 :   0.5000 0.5000 0.2500  plane waves:   45500
 k-point  29 :  -0.2500 0.5000 0.5000  plane waves:   45500
 k-point  30 :  -0.2500 0.5000 0.2500  plane waves:   45488
 k-point  31 :   0.2500-0.2500 0.2500  plane waves:   45479
 k-point  32 :   0.5000-0.2500 0.2500  plane waves:   45499
 k-point  33 :  -0.2500 0.2500 0.5000  plane waves:   45499
 k-point  34 :   0.5000 0.0000 0.5000  plane waves:   45474
 k-point  35 :   0.5000 0.2500 0.5000  plane waves:   45488
 k-point  36 :   0.5000 0.5000 0.5000  plane waves:   45516

 maximum and minimum number of plane-waves per node :     45567    45454

 maximum number of plane-waves:     45567
 maximum index in each direction: 
   IXMAX=   24   IYMAX=   24   IZMAX=   24
   IXMIN=  -24   IYMIN=  -24   IZMIN=  -24


 serial   3D FFT for wavefunctions
 parallel 3D FFT for charge:
    minimum data exchange during FFTs selected (reduces bandwidth)


 total amount of memory used by VASP MPI-rank0  6702056. kBytes
=======================================================================

   base      :      30000. kBytes
   nonl-proj :     799080. kBytes
   fftplans  :      67629. kBytes
   grid      :     159195. kBytes
   one-center:       1928. kBytes
   wavefun   :    5644224. kBytes
 
     INWAV:  cpu time      0.0000: real time      0.0000
 Broyden mixing: mesh for mixing (old mesh)
   NGX = 49   NGY = 49   NGZ = 49
  (NGX  =196   NGY  =196   NGZ  =196)
  gives a total of 117649 points

 initial charge density was supplied:
 charge density of overlapping atoms calculated
 number of electron    1364.0000000 magnetization 
 keeping initial charge density in first step


--------------------------------------------------------------------------------------------------------


 Maximum index for augmentation-charges          5249 (set IRDMAX)


--------------------------------------------------------------------------------------------------------


 First call to EWALD:  gamma=   0.149
 Maximum number of real-space cells 3x 3x 3
 Maximum number of reciprocal cells 3x 3x 3

    FEWALD:  cpu time      0.0731: real time      0.0097


--------------------------------------- Ionic step        1  -------------------------------------------




--------------------------------------- Iteration      1(   1)  ---------------------------------------


    POTLOK:  cpu time      0.1085: real time      0.1305
    SETDIJ:  cpu time      0.1068: real time      0.0135
     EDDAV:  cpu time     82.1448: real time     82.3605
       DOS:  cpu time      0.0183: real time      0.0183
    --------------------------------------------
      LOOP:  cpu time     82.3784: real time     82.5228

 eigenvalue-minimisations  : 60344
 total energy-change (2. order) : 0.2397538E+05  (-0.7003782E+05)
 number of electron    1364.0000000 magnetization 
 augmentation part     1364.0000000 magnetization 

 Free energy of the ion-electron system (eV)
  ---------------------------------------------------
  alpha Z        PSCENC =     12315.99909697
  Ewald energy   TEWEN  =   -129976.03814951
  -Hartree energ DENC   =    -36025.23833941
  -exchange      EXHF   =         0.00000000
  -V(xc)+E(xc)   XCENC  =      3691.26231007
  PAW double counting   =    134689.96621064  -132185.80545990
  entropy T*S    EENTRO =        -0.00076763
  eigenvalues    EBANDS =      7348.55185953
  atomic energy  EATOM  =    164116.68312662
  Solvation  Ediel_sol  =         0.00000000
  ---------------------------------------------------
  free energy    TOTEN  =     23975.37988736 eV

  energy without entropy =    23975.38065499  energy(sigma->0) =    23975.38014324


--------------------------------------------------------------------------------------------------------




--------------------------------------- Iteration      1(   2)  ---------------------------------------


     EDDAV:  cpu time     80.9508: real time     81.0753
       DOS:  cpu time      0.0206: real time      0.0207
    --------------------------------------------
      LOOP:  cpu time     80.9714: real time     81.0960

 eigenvalue-minimisations  : 59040
 total energy-change (2. order) :-0.2347575E+05  (-0.2309272E+05)
 number of electron    1364.0000000 magnetization 
 augmentation part     1364.0000000 magnetization 

 Free energy of the ion-electron system (eV)
  ---------------------------------------------------
  alpha Z        PSCENC =     12315.99909697
  Ewald energy   TEWEN  =   -129976.03814951
  -Hartree energ DENC   =    -36025.23833941
  -exchange      EXHF   =         0.00000000
  -V(xc)+E(xc)   XCENC  =      3691.26231007
  PAW double counting   =    134689.96621064  -132185.80545990
  entropy T*S    EENTRO =         0.00724066
  eigenvalues    EBANDS =    -16127.20775748
  atomic energy  EATOM  =    164116.68312662
  Solvation  Ediel_sol  =         0.00000000
  ---------------------------------------------------
  free energy    TOTEN  =       499.62827865 eV

  energy without entropy =      499.62103799  energy(sigma->0) =      499.62586509


--------------------------------------------------------------------------------------------------------




--------------------------------------- Iteration      1(   3)  ---------------------------------------


     EDDAV:  cpu time    108.9403: real time    109.1047
       DOS:  cpu time      0.0212: real time      0.0213
    --------------------------------------------
      LOOP:  cpu time    108.9616: real time    109.1260

 eigenvalue-minimisations  : 86904
 total energy-change (2. order) :-0.1648889E+04  (-0.1558201E+04)
 number of electron    1364.0000000 magnetization 
 augmentation part     1364.0000000 magnetization 

 Free energy of the ion-electron system (eV)
  ---------------------------------------------------
  alpha Z        PSCENC =     12315.99909697
  Ewald energy   TEWEN  =   -129976.03814951
[...]
   -.769E+02 0.163E+03 -.316E+02   0.771E+02 -.163E+03 0.316E+02   -.173E+00 0.634E+00 0.857E-01   -.152E-01 0.198E-01 -.136E-01
   0.470E+01 0.283E+02 0.241E+02   -.488E+01 -.282E+02 -.243E+02   0.178E+00 -.735E-01 0.246E+00   -.146E-03 0.102E-01 0.560E-02
   0.105E+03 -.732E+02 0.142E+03   -.104E+03 0.732E+02 -.142E+03   -.877E+00 -.554E-01 0.370E+00   0.513E-02 0.116E-01 -.109E-01
   0.130E+03 -.134E+03 0.135E+03   -.130E+03 0.134E+03 -.135E+03   -.195E+00 -.537E+00 -.628E+00   0.190E-02 -.937E-03 0.235E-02
   0.102E+03 -.527E+02 0.137E+03   -.102E+03 0.523E+02 -.137E+03   0.139E+00 0.446E+00 0.483E+00   -.117E-01 0.832E-02 -.146E-01
   0.115E+03 -.696E+02 0.136E+03   -.116E+03 0.691E+02 -.135E+03   0.621E+00 0.474E+00 -.548E+00   -.158E-01 0.411E-02 0.228E-02
   0.162E+02 -.124E+03 -.449E+02   -.163E+02 0.123E+03 0.446E+02   0.121E+00 0.211E+00 0.318E+00   -.127E-02 0.306E-02 -.762E-03
   -.931E+02 -.570E+02 0.865E+02   0.928E+02 0.570E+02 -.866E+02   0.320E+00 0.302E-01 0.265E-01   -.264E-02 -.198E-02 0.234E-03
   0.129E+03 0.213E+02 -.492E+02   -.129E+03 -.212E+02 0.490E+02   -.986E-01 -.116E+00 0.283E+00   0.225E-02 -.207E-03 -.278E-02
   0.195E+03 -.141E+03 0.238E+03   -.195E+03 0.141E+03 -.238E+03   -.103E+00 0.192E-01 -.160E+00   -.505E-02 0.177E-02 -.761E-02
   0.226E+02 0.541E+02 0.683E+02   -.226E+02 -.539E+02 -.684E+02   0.699E-01 -.104E+00 0.550E-01   0.214E-02 -.228E-01 -.102E-01
 -----------------------------------------------------------------------------------------------
   0.990E+00 -.670E+00 0.123E+01   0.297E-11 0.767E-12 0.173E-11   -.994E+00 0.656E+00 -.122E+01   -.413E-02 0.105E-01 -.166E-04
 
 
 POSITION                                       TOTAL-FORCE (eV/Angst)
 -----------------------------------------------------------------------------------
     -4.27322     12.13806      0.01112        -0.002059      0.002424     -0.002578
     12.08220     -1.19965      2.19455         0.000988     -0.000244      0.000948
      6.93774      9.78258      4.22952        -0.002302     -0.001479     -0.000420
     -6.90388      8.57064      6.33688        -0.000193      0.002186      0.000546
     -3.46855     -4.88996      8.54172        -0.000964     -0.001943     -0.002390
     -1.65909      1.23682      2.09696         0.000816     -0.001137     -0.004838
     -2.57558      0.02675      4.24051        -0.002693      0.000400      0.001104
     -3.39873     -1.23163      6.40192        -0.004130     -0.002756     -0.000232
     -2.55948      3.65963      2.07928        -0.001636     -0.002862     -0.002977
     -3.42760      2.47059      4.23287        -0.002323      0.003409     -0.002518
     -4.28844      1.21397      6.35005         0.001202     -0.000362     -0.001341
     -5.10069     -0.06488      8.58992         0.001079     -0.001510      0.003847
     -2.60454      7.46614      0.03865         0.004093     -0.001071      0.005889
     -3.46747      6.16036      2.11701        -0.002433     -0.004347      0.004679
     -4.31067      4.90948      4.23917        -0.000067      0.002517      0.001398
     -5.16951      3.70900      6.36588        -0.000937      0.001781      0.001767
     -5.98069      2.41598      8.44086        -0.002493     -0.000088      0.004006
      8.69636      8.63837      1.99636        -0.004015     -0.004186     -0.001064
     -5.19335      7.35568      4.21541        -0.002179     -0.000806     -0.000753
     -6.05289      6.12553      6.36501         0.001300      0.001891     -0.000206
     -6.94125      4.88250      8.58581         0.000105      0.000213      0.002257
     -1.65495     -6.05652     10.60677         0.000772     -0.000217      0.001044
     -2.66591     10.94669      1.94790        -0.001340     -0.000206     -0.001963
     -3.49292      9.78593      4.17090        -0.003040      0.001083     -0.000733
     -4.35203      8.55836      6.35408         0.003526      0.000936     -0.001819
     -5.21213      7.32716      8.47377         0.000963      0.001901     -0.000032
      1.69725      2.42355      0.04159        -0.003691     -0.002685     -0.002088
      0.89772      1.18261      2.13021         0.002221      0.002403      0.004876
      0.01936      0.00066      4.23225        -0.001866      0.001864      0.004012
     -0.84918     -1.20660      6.35538         0.001661     -0.004446     -0.001579
     -1.78125     -2.45947      8.52339         0.000204     -0.003945     -0.003020
      0.84133      4.86208     -0.00314        -0.000724     -0.002509     -0.003443
      0.02390      3.62488      2.11318         0.002266     -0.002145      0.002367
     -0.84564      2.45298      4.23772         0.001283     -0.003347     -0.002159
     -1.71310      1.25151      6.36115         0.005492     -0.004689     -0.001377
     -2.55716      0.02430      8.50192         0.001214     -0.001454     -0.000954
     -0.00424      7.38488     -0.00371         0.006848     -0.001180     -0.001018
     -0.88019      6.06481      2.04549         0.003011     -0.002444      0.003353
     -1.71337      4.88585      4.22818        -0.000090     -0.001478     -0.000505
     -2.57771      3.68175      6.36518         0.003209      0.002177     -0.000067
     -3.44405      2.46359      8.50481        -0.001018     -0.002008     -0.004619
     -5.32581      3.68071     10.58310         0.002499     -0.001759     -0.005123
     -1.68914      8.54839      2.15838        -0.000809      0.000658     -0.000944
     -2.61404      7.33271      4.21613         0.001476      0.002884     -0.002064
     -3.45377      6.11041      6.36337        -0.000694      0.004063     -0.001265
     -4.33310      4.89217      8.49672         0.002748      0.002161      0.000036
     -3.45531      6.10792     10.59410         0.001460     -0.000236     -0.002497
     -0.02787     11.01108      2.04918        -0.000120      0.002104     -0.002688
     -0.90304      9.81120      4.17097        -0.002430     -0.000555     -0.004446
     -1.84331      8.53198      6.28724         0.001023      0.004171     -0.001671
      1.76112     -4.89746      8.52231         0.001515      0.002278     -0.001366
      4.32356      2.46597      0.01562         0.001547      0.001883     -0.001456
      3.46405      1.21866      2.12281         0.002938      0.003658      0.001074
      2.58213      0.01008      4.20366        -0.001738     -0.004762     -0.005292
      1.68720     -1.21072      6.36128         0.007132     -0.000287     -0.004930
      0.80360     -2.46195      8.52130         0.004530      0.002747     -0.001764
      3.44947      4.90203      0.02148        -0.002725      0.003176     -0.001929
      2.60080      3.67170      2.12714        -0.000471     -0.004010     -0.001022
      1.74558      2.45563      4.24951        -0.000292     -0.001606     -0.001129
      0.86570      1.25387      6.37652         0.002511     -0.004320      0.002920
      0.00490      0.01420      8.51555         0.002119      0.000110      0.001331
      2.59944      7.35265      0.00748         0.000084      0.002469      0.001475
      1.73544      6.10533      2.11617         0.000339     -0.001280     -0.000796
      0.87606      4.88436      4.23208         0.002683     -0.004359      0.001861
      0.01576      3.68578      6.36483        -0.000576     -0.003270      0.001204
     -0.85661      2.46803      8.50699         0.001252     -0.000258      0.003049
     -2.58596      3.66932     10.59906         0.000285      0.000007     -0.002276
      0.87260      8.56537      2.08094        -0.003303      0.001255      0.000945
      0.00366      7.29130      4.19707         0.001887     -0.003591      0.000591
     -0.83353      6.12633      6.36689        -0.004121      0.001866      0.000396
     -1.71501      4.90787      8.48773         0.003313      0.001128     -0.000006
      3.45084     12.23168     -0.00381        -0.000489      0.001940      0.000811
      2.61956     11.02330      2.08488        -0.002913     -0.001470      0.002255
      1.74175      9.79928      4.09210        -0.003621      0.002600      0.001253
      4.44009     -4.94996      8.61150        -0.003762      0.002045      0.001530
      6.95618      2.42937      0.06089         0.002447     -0.000314     -0.004250
      6.05631      1.23510      2.12661         0.000138     -0.005145     -0.000837
      5.21751      0.03762      4.19938        -0.006374     -0.005018      0.003269
      4.17087     -1.06355      6.17853         0.001482     -0.004786     -0.000707
      6.05765      4.87162      0.01436        -0.001625     -0.001158      0.000508
      5.19038      3.69255      2.13333        -0.000927     -0.007073      0.002580
      4.34225      2.48334      4.24724         0.003284     -0.003857      0.002244
      3.47079      1.29468      6.39644        -0.000594     -0.002291     -0.002474
      2.51026      0.07840      8.51361         0.000171      0.005168      0.004748
      5.18810      7.37092      0.02300         0.001164      0.002595      0.000377
      4.33616      6.12650      2.13084        -0.002051      0.000129      0.003363
      3.46943      4.90705      4.24960         0.002501     -0.002289     -0.000654
      2.62283      3.66433      6.37999        -0.002218      0.002951     -0.002045
      1.77489      2.48844      8.54653        -0.001659      0.005892      0.002468
      4.34256      9.80101     -0.00096        -0.001569      0.001056      0.001593
      3.48183      8.56274      2.11588        -0.002710      0.003259     -0.000171
      2.60363      7.34152      4.26191         0.001047      0.003569     -0.002734
      1.76610      6.10190      6.38818        -0.001840      0.002351     -0.001264
      0.87559      4.87916      8.51784         0.000778      0.004460      0.000514
      6.14387     -6.09935     10.63566        -0.000560     -0.001929     -0.002466
      5.21722     11.01468      2.08696        -0.000857      0.001235      0.001283
      8.69542     -2.44561      4.27577        -0.002732      0.000642      0.001125
      7.90023     -3.72664      6.49235         0.001462      0.003768     -0.001653
      8.72770      1.25610      2.08808        -0.000658     -0.004199     -0.002582
      7.86543      0.03518      4.19681        -0.004345     -0.000515      0.003490
      8.75998      4.83553      0.10190         0.003561     -0.000421      0.002524
      7.79821      3.68561      2.16044        -0.000837     -0.002304      0.000251
      6.96009      2.47366      4.25606         0.000019     -0.000775      0.002626
      6.09294      1.34572      6.31906         0.001299      0.005496      0.004438
      7.76219      7.27475      0.02517         0.004436      0.002577     -0.000434
      6.94629      6.13733      2.14185        -0.002460     -0.002443     -0.004235
      6.08360      4.92206      4.25664         0.002070      0.000089      0.002547
      5.22882      3.70986      6.43120         0.000013      0.006519      0.001530
      4.44672      2.65241      8.77402         0.001792     -0.000261      0.002803
      7.03798      9.82486      0.02530         0.001493      0.000973      0.001614
      6.09089      8.57778      2.11315        -0.001877      0.000441      0.002541
      5.20371      7.35416      4.25047        -0.001638     -0.000736      0.002669
      4.37854      6.11746      6.37265        -0.001980      0.003660      0.002044
      3.42693      5.01608      8.47323         0.002228     -0.006172      0.000223
     -0.81935      2.42350      0.04227        -0.001502     -0.000027     -0.002378
     -4.21414     -2.47216      8.54624        -0.006429     -0.002463     -0.001399
     -1.67021      4.89854      0.08159         0.000655     -0.003232     -0.000497
      7.02973     -4.96226      8.59550        -0.001825      0.004386     -0.000383
      9.56370      2.39912      0.10911         0.002096      0.000549     -0.006643
      5.19285     -3.63128      6.36424        -0.002109     -0.002072     -0.004594
      3.46342     -2.43048      8.47761         0.003239      0.008550     -0.001130
      6.92863     -1.20497      6.35559        -0.006009      0.005105      0.004587
      6.25482     -2.55532      8.71946         0.003329     -0.000990      0.005320
      5.19637      0.06688      8.50510         0.001342      0.003968      0.004786
 -----------------------------------------------------------------------------------
    total drift:                               -0.008773     -0.003314      0.002728


--------------------------------------------------------------------------------------------------------



  FREE ENERGIE OF THE ION-ELECTRON SYSTEM (eV)
  ---------------------------------------------------
  free  energy   TOTEN  =     -1104.52480995 eV

  energy  without entropy=    -1104.50757981  energy(sigma->0) =    -1104.51906657
 


--------------------------------------------------------------------------------------------------------


    POTLOK:  cpu time      0.1781: real time      0.0802


--------------------------------------------------------------------------------------------------------




--------------------------------------------------------------------------------------------------------


  
 reached required accuracy - stopping structural energy minimisation
     LOOP+:  cpu time   3581.9430: real time   3579.8464
    4ORBIT:  cpu time      0.0000: real time      0.0000



 total charge

# of ion       s       p       d       tot
------------------------------------------
    1        0.352   6.225   3.025   9.602
    2        0.376   6.243   3.115   9.733
    3        0.358   6.235   3.084   9.677
    4        0.358   6.239   3.077   9.674
    5        0.359   6.248   3.050   9.656
    6        0.362   6.245   3.084   9.691
    7        0.356   6.239   3.053   9.648
    8        0.355   6.233   3.056   9.644
    9        0.359   6.247   3.053   9.659
   10        0.358   6.239   3.058   9.655
   11        0.353   6.235   3.038   9.625
   12        0.354   6.229   3.054   9.637
   13        0.352   6.215   3.026   9.593
   14        0.357   6.238   3.067   9.663
   15        0.358   6.239   3.068   9.665
   16        0.359   6.236   3.071   9.666
   17        0.368   6.236   3.076   9.680
   18        0.350   6.217   3.029   9.596
   19        0.356   6.238   3.049   9.643
   20        0.358   6.238   3.064   9.659
   21        0.355   6.222   3.026   9.602
   22        0.376   6.243   3.115   9.733
   23        0.350   6.218   3.019   9.587
   24        0.355   6.238   3.046   9.639
   25        0.357   6.235   3.080   9.672
   26        0.358   6.236   3.073   9.666
   27        0.362   6.245   3.084   9.691
   28        0.361   6.244   3.078   9.683
   29        0.359   6.236   3.084   9.679
   30        0.355   6.236   3.063   9.654
   31        0.357   6.243   3.064   9.664
   32        0.359   6.247   3.053   9.659
   33        0.362   6.249   3.065   9.676
   34        0.359   6.240   3.072   9.672
   35        0.359   6.237   3.071   9.667
   36        0.358   6.237   3.074   9.669
   37        0.357   6.238   3.067   9.663
   38        0.358   6.241   3.080   9.679
   39        0.356   6.237   3.054   9.648
   40        0.357   6.237   3.070   9.664
   41        0.358   6.233   3.088   9.679
   42        0.350   6.217   3.029   9.596
   43        0.371   6.239   3.098   9.708
   44        0.359   6.231   3.100   9.690
   45        0.358   6.239   3.053   9.650
   46        0.357   6.239   3.064   9.660
   47        0.358   6.235   3.084   9.677
   48        0.355   6.237   3.046   9.639
   49        0.357   6.227   3.087   9.670
   50        0.355   6.223   3.079   9.658
   51        0.352   6.231   3.043   9.626
   52        0.356   6.239   3.053   9.648
   53        0.359   6.236   3.083   9.679
   54        0.357   6.241   3.035   9.633
   55        0.357   6.230   3.073   9.660
   56        0.356   6.230   3.063   9.649
   57        0.358   6.239   3.058   9.655
   58        0.359   6.240   3.072   9.672
   59        0.358   6.240   3.067   9.665
   60        0.355   6.236   3.054   9.646
   61        0.357   6.233   3.082   9.672
   62        0.358   6.239   3.068   9.665
   63        0.356   6.237   3.054   9.648
   64        0.359   6.237   3.071   9.666
   65        0.357   6.237   3.064   9.657
   66        0.357   6.240   3.054   9.651
   67        0.356   6.238   3.049   9.643
   68        0.359   6.231   3.100   9.689
   69        0.353   6.233   3.048   9.634
   70        0.354   6.232   3.050   9.635
   71        0.357   6.237   3.067   9.662
   72        0.358   6.239   3.077   9.674
   73        0.357   6.235   3.080   9.672
   74        0.355   6.223   3.079   9.658
   75        0.353   6.230   3.041   9.624
   76        0.355   6.233   3.056   9.645
   77        0.355   6.236   3.063   9.654
   78        0.357   6.230   3.073   9.660
   79        0.362   6.221   3.104   9.687
   80        0.353   6.235   3.038   9.625
   81        0.359   6.237   3.071   9.667
   82        0.355   6.236   3.054   9.646
   83        0.353   6.223   3.068   9.644
   84        0.357   6.221   3.099   9.677
   85        0.359   6.236   3.071   9.666
   86        0.357   6.237   3.071   9.664
   87        0.357   6.237   3.064   9.657
   88        0.355   6.231   3.078   9.665
   89        0.355   6.234   3.057   9.646
   90        0.358   6.238   3.064   9.660
   91        0.358   6.239   3.053   9.650
   92        0.354   6.232   3.050   9.635
   93        0.353   6.235   3.038   9.626
   94        0.359   6.235   3.093   9.687
   95        0.359   6.248   3.050   9.656
   96        0.358   6.236   3.073   9.666
   97        0.352   6.231   3.043   9.626
   98        0.353   6.230   3.041   9.624
   99        0.357   6.243   3.064   9.664
  100        0.356   6.230   3.063   9.649
  101        0.354   6.229   3.054   9.637
  102        0.358   6.237   3.075   9.669
  103        0.357   6.233   3.082   9.672
  104        0.357   6.221   3.099   9.677
  105        0.368   6.236   3.076   9.680
  106        0.358   6.233   3.088   9.679
  107        0.357   6.240   3.054   9.651
  108        0.355   6.234   3.057   9.646
  109        0.342   6.203   3.007   9.552
  110        0.355   6.222   3.026   9.602
  111        0.357   6.239   3.064   9.660
  112        0.357   6.237   3.067   9.662
  113        0.359   6.235   3.093   9.687
  114        0.374   6.249   3.097   9.719
  115        0.416   6.338   4.152  10.906
  116        0.425   6.317   4.244  10.986
  117        0.423   6.312   4.246  10.981
  118        0.425   6.314   4.261  11.000
  119        0.425   6.317   4.244  10.986
  120        0.355   6.273   2.098   8.727
  121        0.354   6.273   2.100   8.728
  122        0.354   6.273   2.100   8.728
  123        0.368   6.295   2.147   8.810
  124        0.353   6.276   2.085   8.714
--------------------------------------------------
tot         44.631 773.756 381.0631199.450
 

 total amount of memory used by VASP MPI-rank0  6702056. kBytes
=======================================================================

   base      :      30000. kBytes
   nonl-proj :     799080. kBytes
   fftplans  :      67629. kBytes
   grid      :     159195. kBytes
   one-center:       1928. kBytes
   wavefun   :    5644224. kBytes
 
  
  
 General timing and accounting informations for this job:
 ========================================================
  
                  Total CPU time used (sec):     3692.953
                            User time (sec):     3036.890
                          System time (sec):      656.063
                         Elapsed time (sec):     3690.432
  
                   Maximum memory used (kb):     9040016.
                   Average memory used (kb):          N/A
  
                          Minor page faults:       845958
                          Major page faults:           10
                 Voluntary context switches:       703827
