124
Lattice="-7.334698984912011 7.327326602869729 7.330561733762222 7.332652321213073 -7.332808832545034 7.3339977034273796 7.33118444310953 7.329295232443135 -7.3360444405480525" Properties=species:S:1:pos:R:3:energies:R:1:forces:R:3 energy=-1119.0772238810778 free_energy=-1119.0772238810778 stress="-0.0034742450944389683 0.00016670305258405645 0.0005808976905898072 0.00016670305258405645 -0.0036243516646180694 -0.00025544505843899976 0.0005808976905898072 -0.00025544505843899976 -0.003220886953427733" pbc="T T T"
Cr       2.86961568      -2.88470764       2.85407699      -7.32690552      -0.00089949       0.00166881      -0.00277870
Cr       2.94441479       8.77438710      -2.93477221      -7.46752657       0.00001606       0.00081538       0.00049427
Cr       4.39597160       7.34264632      -1.49724956      -7.45310712       0.00048838      -0.00024258      -0.00171946
Cr       5.89465851       2.90604674       2.95714684      -7.74666723      -0.00063989       0.00034816       0.00131648
Cr       1.43043715       4.40124897       4.37215894      -8.19841034       0.00076712       0.00082555       0.00035270
Cr      -4.39971632       7.34492100       4.39831620      -7.52488868      -0.00014855      -0.00076737       0.00110783
Ti       2.88333230      -0.04972131       0.07696611      -8.27315930       0.00021399      -0.00114110       0.00095352
Ti       4.43057194      -4.38385298       7.33645311      -7.91186758       0.00153781      -0.00135511      -0.00095556
Ti       4.37241845       4.39846902       1.45476459      -9.13211651      -0.00083712      -0.00009105       0.00151024
Ti       1.46615393      10.19081332       1.45291215      -7.92769025      -0.00146799       0.00174810       0.00019584
Ti       4.38641238       7.33393677       4.38175728      -7.97999052      -0.00078778       0.00186915      -0.00028405
V        0.03392616      -0.02604287       0.03940400      -8.85574265      -0.00129759       0.00178544       0.00058330
V        1.46074145       1.47292944      -1.45658658      -9.29402464      -0.00041223       0.00165598      -0.00024509
V        2.93302513       2.93329444      -2.93808467      -9.57294874       0.00036579      -0.00240708       0.00085570
V        4.39097498       4.38903771      -4.39937408      -9.09823643      -0.00021511      -0.00068021       0.00154799
V        5.80679939       5.86129579      -5.83778021      -8.77206516       0.00098852      -0.00122109       0.00069372
V        4.40662477       1.46488108      -1.48066954      -9.53592732      -0.00420451      -0.00416533       0.00563394
V        5.86135113       2.93136176      -2.96044534      -9.28136541       0.00158884       0.00142178      -0.00056946
V        7.34679003       4.42461731      -4.43285983      -8.84560085      -0.00050725       0.00001048      -0.00003305
V        4.47287958      -1.48542674       1.47356663      -8.84599935      -0.00224356      -0.00009682       0.00095163
V        5.86139199      -0.01440288       0.00195172      -9.34074685      -0.00100469      -0.00020807      -0.00000010
V        7.32678753       1.46635824      -1.47625538      -9.46380311       0.00003748       0.00092903      -0.00164165
V        8.78871180       2.93932635      -2.96589202      -9.12597044      -0.00012364      -0.00027212      -0.00136227
V        4.40222967      -4.38408987       4.38789127      -9.06686699      -0.00461628       0.00342257      -0.00377829
V        5.88142648      -2.93202950       2.93822184      -9.16516507       0.00060637       0.00087863      -0.00125822
V        7.34456044      -1.47191549       1.47421778      -9.37153681       0.00083994       0.00016300       0.00010162
V        8.79088712      -0.02175396       0.00091042      -9.32937498       0.00108062       0.00121523      -0.00129161
V       10.25023928       1.48106435      -1.46253232      -9.03385013       0.00033075       0.00068966      -0.00191128
V        5.87584832      -5.83943459       5.86168875      -8.99675947       0.00030462      -0.00148414       0.00110990
V        7.33545504      -4.39430829       4.39976259      -9.43037390      -0.00106831      -0.00143629       0.00139523
V        8.79247114      -2.91621204       2.95386422      -9.49462694       0.00040306      -0.00128127       0.00138521
V       10.24812257      -1.47849918       1.47732816      -9.42605691       0.00109390      -0.00004751      -0.00036892
V       11.73336324       0.00404301      -0.00009290      -9.02018009       0.00003010       0.00146107      -0.00024922
V       -1.44900200       1.45982533       1.47079783      -8.96793243      -0.00076014       0.00324893      -0.00078547
V       -0.00214563       2.94536987      -0.00520408      -9.06164686       0.00084240      -0.00103153       0.00113254
V        1.46089830       4.40375756      -1.46710820      -9.05398070       0.00034755      -0.00084992       0.00182189
V        2.93580462       5.85431900      -2.93354589      -9.14368995      -0.00041385      -0.00068852      -0.00137048
V        4.38777955       7.33326926      -4.39608906      -9.14790180       0.00139102      -0.00069189      -0.00076834
V        0.04165461      -0.03424439       2.88863674      -8.93143514       0.00257424      -0.00095854      -0.00100874
V        1.47549276       1.55572638       1.50012088      -9.27016051      -0.00419312      -0.00350414      -0.00209481
V        2.91398391       2.92738595      -0.03466543      -9.54257888      -0.00141408      -0.00124305       0.00227934
V        4.39961385       4.38895526      -1.48169273      -9.46672110       0.00189236      -0.00105919      -0.00193808
V        5.87302733       5.86491654      -2.94707355      -9.15934599      -0.00004376       0.00024007       0.00200629
V        1.46896754      -1.46125905       4.44731020      -8.85705612      -0.00072550       0.00079284      -0.00359412
V        2.92059410      -0.04030655       2.91480994      -9.17000790      -0.00126441       0.00305003       0.00272140
V        4.36956817       1.45284103       1.47130702      -9.90575795       0.00219031       0.00247932      -0.00019175
V        7.33451216       4.39080276      -1.48028669      -9.48239940      -0.00079181      -0.00018360       0.00049340
V        2.94057747      -2.92627706       5.86223743      -9.07729352      -0.00143430       0.00022513       0.00103442
V        4.38933526      -1.47114299       4.39404282      -9.05922663       0.00217261      -0.00005668       0.00154334
V        5.86544110      -0.01085915       2.93916110      -9.24252602      -0.00024176      -0.00014086      -0.00095123
V        7.35647182       1.43691787       1.44009383      -9.51798715      -0.00054670      -0.00046851       0.00079272
V        5.87502266      -2.92505655       5.86307781      -8.95943076      -0.00222193       0.00077747      -0.00073483
V        7.33443341      -1.47549674       4.40906945      -8.97530831      -0.00040171       0.00086981      -0.00081139
V        8.79182420      -0.01102808       2.93673672      -9.20755797       0.00124688       0.00118645       0.00074300
V       10.26398183       1.45781274       1.46267466      -9.09140776       0.00091688      -0.00107304      -0.00033912
V       -2.93268043       2.93412194       2.93409665      -9.16433915       0.00055267      -0.00316632      -0.00120757
V       -1.46382688       4.40912804       1.46820686      -9.39270381       0.00111181      -0.00059515       0.00057020
V       -0.00058690       5.86375765      -0.01571016      -9.23407590      -0.00078279       0.00075707      -0.00063019
V        1.46527299       7.32232267      -1.47373469      -9.15627305      -0.00030175      -0.00034810       0.00025407
V       -1.45463528       1.46119908       4.39923900      -9.19540332       0.00306116      -0.00253005      -0.00340052
V       -0.05199249       2.90820958       2.91509175      -9.54050039       0.00107295      -0.00100493      -0.00072951
V        1.46328949       4.40752450       1.47007187      -9.91524065      -0.00071752      -0.00152120       0.00056726
V        2.92908762       5.85708633      -0.01300311      -9.27255515       0.00107652       0.00101619      -0.00048218
V        0.00831953       0.00082778       5.86487613      -9.01871621       0.00073429      -0.00117284      -0.00112544
V        1.47044211       1.46250102       4.38404215      -9.57501596      -0.00095742       0.00332101       0.00265726
V        5.87409042       5.88438614      -0.01797333      -9.33142856       0.00173520      -0.00037276       0.00021550
V        1.46990417      -1.44518096       7.33670523      -9.08317513      -0.00011102       0.00130738      -0.00046649
V        2.93930002       0.00037291       5.86905040      -9.03442593       0.00067756       0.00007475       0.00004904
V        4.36878922       1.44592718       4.41487301      -9.52175182      -0.00033529      -0.00084630      -0.00098052
V        7.35236378       4.40600938       1.44047532      -9.47120323      -0.00148041      -0.00108221       0.00030581
V        2.94244062      -2.92509324       8.79523270      -9.05599136       0.00103195      -0.00110169      -0.00090225
V        4.41229172      -1.46115294       7.33302434      -8.99697509      -0.00133427       0.00129576      -0.00054026
V        5.86555965      -0.00014359       5.86697376      -8.98634644      -0.00105783       0.00111477      -0.00113652
V        7.33496947       1.43420333       4.42395710      -9.11282190       0.00023593       0.00238803       0.00144525
V        8.80629050       2.92452768       2.95108835      -9.24469874       0.00089830       0.00086684      -0.00030509
V       -4.38679986       4.39629141       4.39250636      -9.17540277       0.00049275      -0.00085275      -0.00059968
V       -2.94358018       5.86313350       2.91647393      -9.38080343      -0.00147149      -0.00184955      -0.00057781
V       -1.47032590       7.32419153       1.46226203      -9.42187054       0.00163139      -0.00031555      -0.00014185
V       -0.00447333       8.78652230       0.00874459      -9.03049650      -0.00011461       0.00091855       0.00023862
V        1.46615498      10.25760362      -1.45496518      -9.13510767      -0.00067792      -0.00167054      -0.00064348
V       -2.93822309       2.92501840       5.86288328      -9.17614676      -0.00044477       0.00059453       0.00127947
V       -1.46603079       4.39649680       4.39935044      -9.64404346      -0.00155369      -0.00099136       0.00141165
V        1.46037885       7.31493413       1.46814080      -9.47866843       0.00036236       0.00080470       0.00037055
V        2.93254482       8.79043858      -0.00315939      -9.19581656      -0.00010996       0.00007748      -0.00035106
V       -1.45998286       1.45991697       7.32758199      -9.21968888      -0.00128172       0.00058738      -0.00037064
V       -0.02047826       2.91290499       5.88430762      -9.59653301       0.00111447      -0.00169865      -0.00174774
V        2.93982309       5.89518099       2.89818863      -9.60373809       0.00143287       0.00091154       0.00199231
V        4.39840991       7.33640252       1.46015992      -9.04349871      -0.00174915       0.00030788      -0.00045280
V        0.00401689       0.00549887       8.79671980      -9.47690413      -0.00109600       0.00031830      -0.00024995
V        1.46222429       1.45565605       7.32066661      -9.53713780      -0.00022440      -0.00086124      -0.00004180
V        2.93951691       2.90818344       5.90381241      -9.74913051       0.00059273      -0.00052674      -0.00044645
V        4.36673218       4.39569227       4.41477390      -9.69882797       0.00026483      -0.00171822       0.00011070
V        5.87564933       5.85904269       2.91095928      -9.25291863       0.00197897       0.00054881       0.00081625
V        1.46850692      -1.47189526      10.24551003      -9.37128163       0.00092515       0.00065883       0.00136111
V        2.93371233       0.00595733       8.79872634      -9.46758270       0.00107508       0.00058984       0.00047689
V        4.39524935       1.45193484       7.33703852      -9.05269564       0.00114169       0.00197953      -0.00013674
V        5.86009528       2.90855186       5.87515319      -9.15499636       0.00343004       0.00351667       0.00365914
V        7.34617047       4.40995981       4.42434903      -9.14656900       0.00053570      -0.00137959       0.00071505
V       -5.85783108       5.84955449       5.80937852      -8.91268708      -0.00147577      -0.00104038       0.00082288
V       -2.92740008       8.79438233       2.92908709      -9.37607672       0.00133386       0.00145100      -0.00074489
V       -1.46462160      10.25858197       1.46645757      -8.91939773      -0.00022700      -0.00126472      -0.00066686
V        0.03713181      11.76073590       0.04810374      -8.86823788       0.00231041       0.00005824       0.00052674
V       -4.41112943       4.40679672       7.35174694      -8.91603745      -0.00137213      -0.00245427      -0.00080670
V       -2.93714293       5.85810190       5.86674521      -9.10338273       0.00149098       0.00165805      -0.00077488
V       -1.46491431       7.32517094       4.39523849      -9.62003375      -0.00118732      -0.00036098      -0.00027658
V       -0.01688206       8.80201103       2.92730612      -9.24913363       0.00015862       0.00001860      -0.00075438
V       -2.93355402       2.93818364       8.80151472      -9.09161901       0.00039997      -0.00018512       0.00032347
V       -1.46612973       4.38819411       7.32805486      -9.32084903       0.00042641       0.00009837       0.00034127
V       -0.02821998       5.87755709       5.89302760      -9.69141254       0.00077746      -0.00063002       0.00092046
V        1.44795307       7.31998379       4.39061121      -9.57059332      -0.00006449      -0.00004848      -0.00125780
V        2.92612725       8.80421755       2.91908531      -9.09649145      -0.00101501      -0.00041704      -0.00086948
V       -1.46353298       1.47649994      10.25521745      -9.24526404      -0.00223241      -0.00031985      -0.00077698
V        0.00468753       2.91836832       8.80644888      -9.77767354       0.00038592       0.00126338      -0.00063803
V        2.92955722       5.87648551       5.89081322      -9.50161240       0.00037246       0.00025522       0.00124722
V       -0.00235240       0.01432994      11.72698167      -9.50986318       0.00052174      -0.00107020       0.00052892
V        2.92703085       2.92586834       8.80856929      -9.83199994      -0.00019098       0.00144736       0.00020889
V        4.39422156       4.38879524       7.33983631      -9.27335995       0.00032048      -0.00067675       0.00151772
W        5.87275291       2.91440246      -0.02705679      -6.73299900      -0.00197763      -0.00124126      -0.00029318
W        2.93303471       2.86906471       2.91498783      -7.02258331       0.00425435      -0.00202455       0.00025124
W       -0.03329691       5.88295939       2.91051042      -6.83972563      -0.00078139      -0.00021932       0.00164924
W        1.45603919       4.38671615       7.35566621      -6.87293012       0.00079862       0.00058996      -0.00079491
W        1.45825561       1.47778696      10.25027560      -6.85779629      -0.00024137      -0.00130219      -0.00075209
Zr       8.78632520       2.92730693      -0.01277113      -8.05742545      -0.00036427       0.00227226       0.00090524
Zr       5.89667593       5.84229542       5.90110238      -7.90363302      -0.00312640       0.00086116      -0.00238828
