127
Lattice="12.05239363577153 3.552520251448903e-05 -0.00021928746231963074 3.551963359022388e-05 12.055582501008777 -3.698160418695492e-05 -0.00021928845706198425 -3.698237207466351e-05 12.052580388546156" Properties=species:S:1:pos:R:3:forces:R:3 energy=-1136.764662373886 free_energy=-1136.764662373886 stress="-0.002253569608135076 0.00024410113332117754 0.0002983396287357823 0.00024410113332117754 -0.0017568665113596503 -0.00110974846256964 0.0002983396287357823 -0.00110974846256964 -0.0033948347231155954" pbc="T T T"
Cr       3.02787540       9.00608070       0.00517197       0.00224708       0.00017268       0.00079177
Cr       9.03575152       3.06021744       3.07312437      -0.00232284      -0.00205356      -0.00249515
Ti       2.98430966       6.02192357       9.05266336      -0.00069730      -0.00127002      -0.00045379
Ti       9.00868276      -0.05191079       8.91890618       0.00165373      -0.00129573       0.00059358
V        0.16204563      -0.01382340       0.02073526      -0.00176014       0.00268640       0.00456264
V        1.64323016       1.54772040       1.49857354       0.00007078      -0.00061084       0.00124169
V       -0.07606094       0.36808944       2.88192195       0.00526080       0.00007172       0.00890092
V        1.49981145       1.53135743       4.49676400       0.00070270       0.00113796       0.00093709
V       -0.00191376       0.02653151       5.99463278      -0.00137366      -0.00019908       0.00100433
V        1.41036161       1.54629298       7.45119789      -0.00214072       0.00111331      -0.00183686
V       -0.04876235      -0.01690170       9.04516847       0.00292789       0.00046078       0.00190203
V        1.44311447       1.56326819      10.60718967       0.00032439      -0.00109372       0.00216275
V       -0.03840047       2.92956776       0.06495110      -0.00243105      -0.00221752      -0.00103223
V        1.52173455       4.50865502       1.50383778      -0.00170021      -0.00107496      -0.00005179
V       -0.00041166       3.00311873       2.99943671      -0.00218314      -0.00001771      -0.00143959
V        1.51448738       4.50300295       4.51771684       0.00098516       0.00288620      -0.00042232
V       -0.01762499       3.01976055       6.01709904      -0.00002514       0.00293976      -0.00104877
V        1.44478097       4.47904268       7.52359181      -0.00038612       0.00171769      -0.00235281
V       -0.01773068       3.00361700       9.07595811      -0.00065723       0.00028800      -0.00195517
V        1.43818856       4.49983725      10.59784914      -0.00222618      -0.00058195      -0.00112023
V       -0.02140668       6.04712384      -0.01193460      -0.00046003      -0.00268538       0.00013766
V        1.57431124       7.50032297       1.44990312      -0.00119784      -0.00030685       0.00103662
V        0.01066852       5.97106634       3.01406012       0.00038842      -0.00012505       0.00015856
V        1.60780415       7.44803139       4.57991286      -0.00644059       0.00624677      -0.00657716
V       -0.00322692       5.98531969       6.04333781       0.00128131       0.00257120      -0.00172472
V        1.49815587       7.56099589       7.52468834       0.00075125       0.00239873      -0.00052794
V       -0.01355697       6.00160797       9.08866879      -0.00107628      -0.00060475      -0.00026251
V        1.46736256       7.55139398      10.59131871       0.00074577       0.00004540       0.00253458
V        0.05027486       9.07555655       0.00549636       0.00120814      -0.00082705       0.00357846
V        1.64941977      10.52411776       1.51962427      -0.00096911      -0.00026263       0.00129957
V        0.23808950       8.70418384       3.19789961      -0.00350242      -0.00065681      -0.00184977
V        1.48776370      10.59489173       4.45204622      -0.00312871      -0.00070055      -0.00138659
V        0.02121792       9.04569775       6.02109846      -0.00187965      -0.00025508       0.00000499
V        1.44194027      10.48070946       7.45078875      -0.00112365       0.00113279      -0.00058291
V       -0.00516259       9.02808273       9.06011958       0.00285233      -0.00121394       0.00262838
V        1.47917629      10.43328941      10.62442758       0.00311466       0.00131937       0.00393681
V        3.03669394      -0.01013034       0.02472464       0.00259072       0.00073424       0.00056395
V        4.51734475       1.52870184       1.55364670       0.00041101      -0.00133999       0.00059834
V        3.02388108       0.01294537       3.01944358       0.00108851      -0.00085796       0.00076241
V        4.51677373       1.48897283       4.49513681      -0.00079482      -0.00144755      -0.00063455
V        2.99837310      -0.00801654       5.95326358      -0.00248449      -0.00074356      -0.00089010
V        4.53396301       1.53970791       7.40068168       0.00191855      -0.00032290       0.00067101
V        4.52373323       1.58238351      10.60092971       0.00013654      -0.00095503       0.00087095
V        2.99156896       3.03824893       0.01541793      -0.00132395      -0.00040663      -0.00058313
V        4.53089038       4.54115818       1.51475196      -0.00200429      -0.00124362      -0.00200338
V        3.03107376       3.03031261       3.01824948       0.00023734       0.00038729      -0.00091017
V        4.53450630       4.52572159       4.49354370      -0.00176974      -0.00050179      -0.00120688
V        2.98890034       3.00689283       5.99503560       0.00123612      -0.00021374       0.00072889
V        4.51715117       4.52498692       7.46712569       0.00253965      -0.00089760       0.00263362
V        2.95956126       3.04367922       9.04803472       0.00020421       0.00047265       0.00044576
V        4.50271857       4.53817048      10.62633724      -0.00006487      -0.00002729      -0.00219512
V        2.99082201       6.01835349       0.01124273      -0.00128531      -0.00025375      -0.00041004
V        4.53095060       7.53769562       1.49416137       0.00007714      -0.00034399       0.00028647
V        3.05733379       6.01216562       2.99573993      -0.00113009       0.00145181       0.00072070
V        4.55463643       7.55335762       4.49633416      -0.00093856       0.00123461       0.00034253
V        3.01630290       6.02182076       6.02143133       0.00205904       0.00146492       0.00029133
V        4.54721050       7.55434749       7.50681504      -0.00024198      -0.00037447      -0.00093972
V        4.50501614       7.53974333      10.60432348       0.00035571       0.00125486      -0.00088708
V        4.50569906      10.52417100       1.53449328       0.00236851      -0.00142192       0.00213931
V        3.07479995       9.03640449       3.02084262      -0.00109835      -0.00061341      -0.00002579
V        4.53547415      10.57154754       4.50505379      -0.00102426      -0.00195354       0.00008287
V        3.04670273       9.05739548       6.02346392      -0.00344611       0.00108483      -0.00222416
V        4.60239033      10.47727483       7.46679862      -0.00120708       0.00092277      -0.00124391
V        3.01467868       8.98453545       9.04379149       0.00147008       0.00091593       0.00087111
V        4.53095483      10.40977317      10.60547651       0.00163658       0.00175079       0.00030543
V        5.77320903      -0.05113498       0.04612509       0.00479745       0.00096250       0.00146773
V        7.48666461       1.60295903       1.72290615       0.00201330      -0.00280649      -0.00142193
V        6.05148761       0.00064655       3.02809395       0.00100475      -0.00048067       0.00197242
V        7.56392617       1.53281737       4.52132474      -0.00218959      -0.00024161       0.00046032
V        6.02529250      -0.00295949       6.00011794       0.00023765      -0.00142414       0.00172867
V        7.49237727       1.53724080       7.43257676       0.00101043      -0.00035755       0.00070125
V        6.09235698      -0.07080694       9.03635484      -0.00026867       0.00106217       0.00071595
V        7.22826209       1.98540169      10.14793066      -0.00214970       0.00684000      -0.00272500
V        6.01710938       3.05453338       0.07075369      -0.00244427       0.00004899      -0.00125297
V        7.53964666       4.53362004       1.54354204      -0.00226330      -0.00225687      -0.00218086
V        6.03122973       3.04671461       3.04116590      -0.00156187      -0.00170838      -0.00224313
V        7.55668721       4.52915167       4.48870995      -0.00182294      -0.00101231      -0.00263938
V        6.01944721       3.01999076       5.98088874       0.00059865      -0.00204121      -0.00140638
V        7.54277413       4.56327559       7.49540594       0.00023789       0.00028944      -0.00189609
V        5.86911052       3.17237123       8.89076013       0.00520206      -0.00406150       0.00332087
V        7.52755322       4.60188280      10.55707187      -0.00087167       0.00081677      -0.00254867
V        6.02258868       6.04586041       0.03337556      -0.00098460       0.00080343      -0.00083764
V        7.59242628       7.60420100       1.42927325      -0.00044058      -0.00120360       0.00284039
V        6.05938883       6.05628766       2.99674197      -0.00147658      -0.00118340      -0.00088096
V        7.53428302       7.55278109       4.48669774       0.00092273      -0.00073115      -0.00115220
V        6.03846868       6.04238833       5.98765717       0.00023025      -0.00168839      -0.00036088
V        7.50028387       7.50578328       7.52301407       0.00017282       0.00114058       0.00032521
V        6.00615899       6.05392252       9.03757877       0.00193281       0.00191297       0.00038284
V        7.55449516       7.46604354      10.57459597       0.00151443       0.00272703       0.00255003
V        5.95548869       8.99626157       0.04144527       0.00218132       0.00106124       0.00259301
V        7.51417574      10.49837150       1.57025441       0.00099181       0.00620126       0.00241687
V        6.05944994       9.05486975       2.99607400       0.00203538      -0.00082430       0.00084941
V        7.55229687      10.57049423       4.50048394       0.00072454      -0.00176734       0.00160072
V        6.04439078       9.05076557       6.00680535      -0.00013917      -0.00014991       0.00086084
V        7.49388483      10.49527145       7.47180524       0.00026412      -0.00113916       0.00113564
V        6.03097767       8.98066694       9.04046751       0.00028741       0.00252515       0.00105801
V        7.74717541       9.97231022      10.73386922       0.00602389      -0.00310499       0.01090722
V        9.08934256       0.02748142       3.06879946       0.00109801       0.00047706       0.00522795
V       10.48841934       1.58203605       4.57621264      -0.00035769       0.00070073       0.00191770
V        9.03587048       0.00864661       6.01315949      -0.00078736      -0.00066297       0.00303081
V       10.56891796       1.53066910       7.50032239       0.00070413       0.00034379      -0.00083328
V       10.61442261       1.45852186      10.52166550       0.00039622       0.00118154      -0.00329519
V        9.08228973       3.02791461       0.06227196      -0.00225190      -0.00065936      -0.00599008
V       10.50271223       4.49480868       4.52636744       0.00012569       0.00060259      -0.00276817
V        9.02726626       3.03383732       6.02959764      -0.00089190       0.00059301      -0.00237079
V       10.52695961       4.49237526       7.55797533      -0.00065295       0.00034190      -0.00340004
V        9.09140629       3.06657636       8.99319499      -0.00121483      -0.00004293      -0.00380202
V       10.53697302       4.50265990      10.56258832      -0.00170445      -0.00155326      -0.00371432
V        9.02641257       5.96437051       0.00309564      -0.00083066      -0.00130831      -0.00039017
V       10.47723594       7.61649551       1.42341244       0.00342521      -0.00401270       0.00190004
V        9.02130912       6.08764464       2.99530666      -0.00089866      -0.00217857      -0.00158187
V       10.51388917       7.49141711       4.51221113      -0.00087356      -0.00077862      -0.00150650
V        9.01800436       6.02479524       5.99418179       0.00023854      -0.00010631      -0.00252560
V        9.02915173       6.01908385       9.05837654      -0.00002590       0.00143912      -0.00076393
V       10.45631724       7.58637036      10.61779537       0.00225482      -0.00148887       0.00107442
V        9.99598390      11.39985016       0.79628031      -0.00869652       0.00192082      -0.00328882
V       11.17955026      10.24414514       2.13008280      -0.00647873       0.01418939      -0.00681443
V        9.04755215       9.08573814       3.08464440       0.00159724      -0.00132683      -0.00271261
V       10.56886538      10.60578687       4.59892371      -0.00112645      -0.00229662       0.00242825
V        9.02217938       9.04487938       6.01150709      -0.00013986      -0.00221512       0.00178780
V       10.58809968      10.55157500       7.47748501       0.00189708      -0.00247372       0.00256241
V        9.04996731       8.99448391       8.93934581       0.00170231       0.00018291       0.00430286
V       10.56885908      10.46546067      10.51892268       0.00606133       0.00232498      -0.00035134
W       10.53168884       4.53698256       1.54096187      -0.00177924      -0.00291073      -0.00166233
W       10.54867849       7.50226114       7.54750977       0.00009703      -0.00060621       0.00103358
Zr       3.01215559      -0.01825602       9.01606318       0.00003121       0.00108560      -0.00073189
Zr       8.26106656       0.32466715      -0.49272871       0.00696290      -0.00586240      -0.00155650
