127
Lattice="12.05239363577153 3.552520251448903e-05 -0.00021928746231963074 3.551963359022388e-05 12.055582501008777 -3.698160418695492e-05 -0.00021928845706198425 -3.698237207466351e-05 12.052580388546156" Properties=species:S:1:pos:R:3:forces:R:3 energy=-1142.1025132350346 free_energy=-1142.1025132350346 stress="0.004543926412294322 -0.00042365383153413134 0.000753483190852018 -0.00042365383153413134 0.004769081027285386 -0.0008790007537444657 0.000753483190852018 -0.0008790007537444657 0.0038824796216435768" pbc="T T T"
Cr       3.02470418       9.00457243       0.02289082      -0.02286893       0.00158598       0.01288470
Cr       9.02090734       2.97435774       3.02428641      -0.01093578      -0.11481716      -0.06369178
Ti       2.98950918       6.02967359       9.06239196       0.01164246       0.01148016       0.00175984
Ti       9.00511339      -0.04707633       8.96541651      -0.01587595       0.01761980       0.05572799
V        0.04665113      -0.09674866      -0.01757102      -0.25839497      -0.00556504       0.06633533
V        1.51026550       1.45504434       1.50713824      -0.12966130      -0.07415171       0.00215677
V        0.01199578      -0.03734180       2.99478999      -0.01901491      -0.23800454       0.00700338
V        1.49468895       1.49830494       4.48337355       0.00031250      -0.03907231      -0.00983136
V       -0.01790348       0.00043127       5.99394667      -0.00247006      -0.02338388      -0.00913403
V        1.39847686       1.56373107       7.43464239       0.00950427       0.02254873      -0.01392367
V       -0.07532221      -0.02844608       9.03508691      -0.01309473       0.00278997      -0.02000064
V        1.43340287       1.54922596      10.60596451      -0.02486120      -0.05501589       0.02217937
V       -0.03336065       2.92480311       0.00391523       0.02721326       0.00508987      -0.06510156
V        1.51616873       4.48595056       1.51661652       0.00271443      -0.01180937      -0.00398131
V        0.00598095       2.93293509       3.00035811       0.00743965      -0.06869853       0.00800558
V        1.52657669       4.50327794       4.52033927      -0.01018876      -0.00654754      -0.01110621
V       -0.01605081       3.00322153       5.99331980       0.00370849      -0.01617488      -0.02244639
V        1.45654436       4.48421741       7.51586953       0.00654948       0.00753381      -0.01109396
V       -0.02540542       3.00487211       9.04852753      -0.00705618      -0.00311951      -0.03387386
V        1.44165768       4.49214883      10.59210476       0.01766985      -0.01111318      -0.01163994
V       -0.02022270       6.01630541       0.00079013       0.00256028      -0.01797923       0.00058494
V        1.55080517       7.49914722       1.50421817      -0.02830413       0.00364264       0.03119580
V        0.01670262       5.98162991       3.01752942      -0.00916184       0.00854329      -0.00775078
V        1.55267800       7.50511917       4.51947659      -0.02056076       0.02031398      -0.02494056
V        0.01698204       5.99193509       6.02403296       0.01050808      -0.00324515      -0.01545721
V        1.51048284       7.55760632       7.51932268       0.00926445       0.00388034       0.00463701
V       -0.01323355       6.00152718       9.08452074       0.00329211      -0.00147756      -0.00406254
V        1.47569512       7.53966189      10.60839845       0.01639979      -0.00337665       0.00633655
V        0.09042129       8.99549230       0.02061059      -0.02215756      -0.01980427       0.03300935
V        1.56405236      10.48850074       1.51824034      -0.10421241      -0.01702946      -0.02001708
V        0.06715489       8.97474915       3.04141994      -0.13390652       0.12099519      -0.12065009
V        1.53531199      10.54798987       4.50049381       0.00159315      -0.03749545       0.00310518
V        0.02260853       9.03514673       6.01074925       0.01138872      -0.01018244      -0.02442623
V        1.43643392      10.46833093       7.45852721       0.01212807      -0.00308324       0.00006112
V       -0.01013971       9.03123248       9.07010533       0.00476610       0.00505863      -0.00759866
V        1.46909717      10.44909065      10.62811733      -0.03720993       0.03439149       0.03007519
V        3.02365219      -0.00989301       0.05007923      -0.03766084      -0.00882439       0.02857191
V        4.49655488       1.51504942       1.53784654      -0.02732667      -0.02216868      -0.01934510
V        3.02142846      -0.00686297       3.00650176      -0.01573113      -0.02051649      -0.00124531
V        4.51676646       1.49330629       4.48907002       0.00463148       0.00542197      -0.00212616
V        3.00099718      -0.00346297       5.94967986       0.01130332       0.01390312       0.00566457
V        4.55549871       1.54786320       7.40539898       0.02230319       0.01205396       0.01674156
V        4.52349758       1.57942843      10.61254327       0.01546107      -0.00956300       0.03011699
V        2.98057637       3.01710188       0.01924449      -0.00297551      -0.02381010      -0.00281783
V        4.52179552       4.53322401       1.50507817      -0.01036071      -0.01183163      -0.00595197
V        3.01388988       3.00708226       3.00472199      -0.02220116      -0.01995638      -0.00873850
V        4.53468013       4.53043570       4.50528187      -0.00209102       0.00814803       0.00596434
V        2.99899552       3.01352132       6.00329660       0.00441238       0.01932033      -0.00056013
V        4.54511753       4.51207247       7.49821656       0.01832861      -0.00886269       0.01115684
V        2.97186741       3.05003115       9.05001180       0.01310232       0.00929020      -0.00342996
V        4.51027819       4.53448926      10.61131370       0.01426502      -0.00579389      -0.02314186
V        2.98997738       6.00613764       0.01712422       0.00547470      -0.00743580      -0.00174003
V        4.52860849       7.53135375       1.49526303      -0.01023480      -0.00343287       0.00522389
V        3.04441289       6.02039367       3.01467846      -0.01484172       0.00281980       0.01074390
V        4.55117224       7.54881548       4.49893496       0.00663353       0.00159363      -0.00175634
V        3.01770222       6.02629766       6.02063965      -0.00015393      -0.00089979      -0.01167403
V        4.55058356       7.55654431       7.51292817       0.00744227       0.00730634       0.00694011
V        4.50539622       7.53748419      10.61511267       0.00758259      -0.01097907       0.01397460
V        4.49534154      10.52612376       1.52580380      -0.02659834       0.01833652      -0.01265108
V        3.05838536       9.02712847       3.02040226      -0.03095410      -0.00809246       0.00572502
V        4.53542828      10.56974977       4.50913443      -0.00139074       0.00340661       0.01236550
V        3.04242855       9.04843511       6.02097528       0.00746142      -0.01122046       0.00786722
V        4.60538302      10.49840001       7.46462876       0.00233354       0.01688816       0.00758165
V        3.01492369       8.98687241       9.05249714       0.00521388      -0.00069282       0.01280204
V        4.52591678      10.43618145      10.62268785      -0.00413728       0.02431574       0.03844819
V        5.85432258      -0.02467905       0.01575940       0.15548467       0.02853839      -0.03545474
V        7.48179104       1.58965699       1.64094676      -0.02286173      -0.04171753      -0.11341240
V        6.02853007      -0.00103795       3.01121935      -0.03917859       0.00666165      -0.01006537
V        7.56317501       1.52594438       4.51076869       0.01514779      -0.02917419      -0.02630518
V        6.03155653       0.00445360       6.00408926       0.01271267       0.00638241       0.01369792
V        7.50439035       1.54140494       7.44844083       0.01033704       0.00576946       0.02313502
V        6.08547948      -0.04363758       9.04315105      -0.00248451       0.02972620       0.01302006
V        7.34189236       1.79816430      10.34999169       0.13704698      -0.26091364       0.27978977
V        5.98262571       3.05978441       0.03381804      -0.03516999      -0.00043347      -0.03976142
V        7.52682255       4.51925230       1.53519520      -0.01294780      -0.01962145      -0.00200502
V        6.01872181       3.03320561       3.02513100      -0.01867332      -0.02324302      -0.01697409
V        7.55517896       4.51340686       4.48870177      -0.00474512      -0.02400655       0.00272072
V        6.02321477       3.02262499       5.98663014       0.00294046       0.00188719       0.00436287
V        7.53882380       4.55485600       7.49613552      -0.01434499      -0.01728718       0.01162927
V        5.95089380       3.09510501       8.96309085       0.07967420      -0.08533705       0.08054948
V        7.51385769       4.57871981      10.53427050      -0.01411090      -0.03499409      -0.01995214
V        6.02443579       6.03817847       0.02542434       0.00840397      -0.01065675      -0.00191393
V        7.63258747       7.58687387       1.41205568       0.04254512      -0.01050306      -0.02548236
V        6.06577292       6.04597784       2.99706363       0.01227528      -0.01535992       0.00019507
V        7.54982955       7.53001923       4.49144669       0.00346822      -0.02489794       0.00689349
V        6.04796506       6.04489164       5.99830577       0.00131384       0.00839288       0.00932518
V        7.50838931       7.49662403       7.52244993       0.01329077      -0.01492583       0.00568375
V        6.01239635       6.04612304       9.04151908       0.00914335      -0.01135179       0.00495936
V        7.57149591       7.47312425      10.58611460       0.02336284       0.01216103       0.01610483
V        5.94225784       8.99840291       0.04539388      -0.02602135      -0.00685417      -0.01761464
V        7.48671348      10.42029554       1.61275838      -0.16639600      -0.08087109       0.03863327
V        6.06361394       9.05376563       2.99471316      -0.01049512       0.00507962      -0.00141294
V        7.55249680      10.57506373       4.50644409       0.01046783       0.01624984      -0.00790400
V        6.05103026       9.05106824       6.01152346       0.00878513      -0.00223465       0.01047804
V        7.50102351      10.50910037       7.47106939       0.01521478       0.01234093      -0.00853280
V        6.02034409       8.99772621       9.03499362       0.00137118       0.01660013       0.00847664
V        7.56499665      10.06070528      10.56974493      -0.16334161       0.15198737      -0.10884572
V        9.03789020      -0.06738678       3.03613633       0.03645253      -0.05078674      -0.12662245
V       10.50790508       1.50032632       4.47256636       0.00550339      -0.06512889      -0.10073395
V        9.05292053       0.00714948       6.01034380       0.01664450      -0.00799690      -0.01943199
V       10.55324682       1.52736649       7.48726550      -0.01535143      -0.00278115      -0.02182583
V       10.58972195       1.52070991      10.49477915      -0.01095018       0.07332602      -0.04457593
V        9.01692843       2.98955770      -0.02412331      -0.07596025      -0.01724876      -0.08601407
V       10.51621023       4.46383912       4.51172530       0.00136999      -0.02622893      -0.00635606
V        9.02997995       3.01704784       6.01664200      -0.00983337      -0.01998480      -0.00834237
V       10.52020486       4.48598700       7.53958225      -0.01147030      -0.01012722      -0.01885004
V        9.04206691       3.05579934       8.98104277      -0.05653881      -0.02697361       0.00274756
V       10.53034477       4.50735591      10.53033553      -0.00500865       0.01257827      -0.04055510
V        9.03167737       5.92593212       0.00700342       0.01048038      -0.03777274       0.00803835
V       10.50913995       7.57263033       1.45209439       0.01293734      -0.01781195       0.01756154
V        9.03573143       6.04692261       2.99231327       0.00789253      -0.03601506      -0.00252010
V       10.57168375       7.48172457       4.49008011       0.03611144      -0.01386860      -0.02639167
V        9.02349119       6.00789556       5.98506255      -0.00386915      -0.02174443      -0.00684776
V        9.02439498       6.01669486       9.05351501      -0.00545369      -0.00924521      -0.00325299
V       10.44233378       7.58363696      10.65064288      -0.01948587      -0.00858946       0.02741441
V       10.50115202      13.29177648       1.46016834       0.41146127       1.67067110       0.68897981
V       10.62590603      10.38002494       1.56945669      -0.41763810       0.22373793      -0.40236253
V        9.07325039       9.01646592       3.11979787       0.03451617      -0.01862999      -0.02288564
V       10.58243178      10.54906917       4.51448677      -0.00059930      -0.05338067      -0.07892669
V        9.04150319       9.04077988       6.00670504       0.01742034      -0.00811288      -0.02244412
V       10.58371436      10.54826920       7.48193245       0.00306784       0.00913721      -0.00238590
V        9.05905980       9.00191906       8.93572233      -0.01269674       0.00098741      -0.01752429
V       10.58710395      10.38938695      10.57215952       0.04998415      -0.15699708      -0.14020591
W       10.53046854       4.45421600       1.52632485       0.00082358      -0.10424393      -0.02253368
W       10.55300599       7.49554548       7.54258875       0.00284586      -0.00509457      -0.01318995
Zr       3.00420252      -0.00437990       9.01310131       0.00895769       0.00928121       0.01636792
Zr       8.70113339      -0.00489886      -0.17849620       0.72816117      -0.32140006       0.47061117
