127
Lattice="12.05239363577153 3.552520251448903e-05 -0.00021928746231963074 3.551963359022388e-05 12.055582501008777 -3.698160418695492e-05 -0.00021928845706198425 -3.698237207466351e-05 12.052580388546156" Properties=species:S:1:pos:R:3:forces:R:3 energy=-1138.9295215181646 free_energy=-1138.9295215181646 stress="-2.7202108585472568e-05 0.0003548807219575524 0.0012342223888088112 0.0003548807219575524 -0.00013836484833198873 -0.0006841357793013857 0.0012342223888088112 -0.0006841357793013857 -0.0006425889459011814" pbc="T T T"
Cr       3.02868074       9.01123946       0.00929948       0.00065237       0.01077650       0.00970747
Cr       9.03166534       3.06162307       3.05695379      -0.01086965       0.00184517      -0.03420027
Ti       2.98663810       6.01487372       9.05123050       0.00362487      -0.01013005      -0.00414165
Ti       8.98015314      -0.02633952       8.96154011      -0.05175912       0.04946402       0.07490660
V       -0.01319069      -0.01016244       0.06706746      -0.33966066       0.01198680       0.09366074
V        1.62495939       1.52980159       1.47840007      -0.03906100      -0.03474262      -0.03921551
V        0.03095070       0.31792872       2.99027175       0.19987538      -0.09656762       0.20436201
V        1.50226345       1.52936039       4.49467361       0.00194872      -0.00360753      -0.00598737
V       -0.00299709       0.01715318       5.99153218      -0.00079334      -0.01869880      -0.00605554
V        1.40792426       1.54082988       7.44565574      -0.00159097      -0.01158989      -0.01141535
V       -0.03017815      -0.01213735       9.02278076       0.03484943       0.01079242      -0.03920286
V        1.42634063       1.54072988      10.63121724      -0.03238833      -0.04203794       0.04537643
V       -0.04827827       2.94967283       0.05976827      -0.01979558       0.04119626      -0.01453206
V        1.51936175       4.50856210       1.50653577      -0.00779772      -0.00043666       0.00202022
V       -0.01775112       2.99132913       2.98198397      -0.04045760      -0.02587679      -0.04009893
V        1.51202520       4.50506706       4.51533425      -0.00799271       0.00272180      -0.00711000
V       -0.02326790       3.02151195       6.00652479      -0.01240493       0.00284580      -0.02408913
V        1.44198334       4.47319667       7.52031063      -0.00526600      -0.01124321      -0.00970172
V       -0.01673876       3.01748711       9.06526970       0.00499516       0.02787117      -0.02415471
V        1.44334651       4.49994701      10.60083236       0.00744350       0.00386132       0.00166297
V       -0.01185138       6.06143922      -0.01050447       0.01651765       0.02909036      -0.00051682
V        1.58237308       7.50038105       1.46869513       0.01562449      -0.00032430       0.03531747
V        0.01675599       5.97828936       3.01995212       0.01167645       0.01205764       0.01019958
V        1.58443384       7.46909430       4.55782200      -0.04025752       0.03706184      -0.03779370
V       -0.00229620       5.98683462       6.04225463       0.00144106       0.00292431      -0.00347776
V        1.50118948       7.55545526       7.52346807       0.00587108      -0.00802284       0.00155812
V       -0.01363016       6.00738610       9.09187302      -0.00108684       0.01438410       0.00249461
V        1.48052593       7.55390640      10.59134140       0.02174546       0.00917158      -0.00050572
V        0.06550701       9.06717892       0.01986023       0.02777130      -0.01569204       0.02799894
V        1.63867946      10.53704357       1.50477824      -0.01867396       0.02485895      -0.02617906
V        0.21104572       8.78192513       3.17280508      -0.04159948       0.13709504      -0.03889575
V        1.50922319      10.57715531       4.47287760       0.04242995      -0.03299386       0.04363157
V        0.02120319       9.03967819       6.02735081       0.00321641      -0.01073813       0.01458156
V        1.44753322      10.47483210       7.45220053       0.01037849      -0.00731367       0.01023872
V        0.01811019       9.01776537       9.05312661       0.04119633      -0.01328989      -0.00927929
V        1.48264849      10.45778255      10.64948653       0.00197512       0.05176656       0.05238526
V        3.02641475      -0.00656550       0.02617510      -0.02184003       0.00719676       0.00393531
V        4.50350855       1.51645970       1.53310043      -0.02809151      -0.02294046      -0.03871702
V        3.02323488       0.00257047       3.01658930      -0.00339055      -0.01985007      -0.00403411
V        4.51530554       1.48537064       4.49115011      -0.00494270      -0.00643483      -0.00939336
V        3.00214436      -0.01399524       5.95630887       0.00759350      -0.00924129       0.00900563
V        4.54396107       1.54150512       7.40579073       0.02148310       0.00690901       0.01105069
V        4.52088445       1.57195789      10.61708236      -0.00375008      -0.01614190       0.03241424
V        2.98213733       3.03648777       0.01588644      -0.02067527      -0.00198004      -0.00098624
V        4.52760224       4.54644487       1.50835690      -0.00791842       0.00873643      -0.01188394
V        3.02466578       3.03130557       3.01258125      -0.01643564       0.00134376      -0.01335765
V        4.53142091       4.52021034       4.49284710      -0.00893211      -0.01094138      -0.00224103
V        2.98707605       3.00434044       5.99432214      -0.00604371      -0.00535546      -0.00522691
V        4.52921974       4.50906302       7.48025950       0.02419518      -0.03113017       0.02546345
V        2.96630844       3.04089311       9.04552780       0.01554176      -0.00090778      -0.00659529
V        4.50566956       4.53538723      10.61661209       0.00615538      -0.00360049      -0.01909531
V        2.99442205       6.02004035       0.00929072       0.00478396       0.00457734      -0.00546721
V        4.53483696       7.54608590       1.48886432       0.00679547       0.01660367      -0.00929048
V        3.05570209       6.01293684       2.99823490      -0.00395802       0.00085092       0.00399027
V        4.55287422       7.54641126       4.49800834      -0.00171436      -0.01293426       0.00644561
V        3.01547165       6.01837903       6.01845939       0.00053854      -0.00810639      -0.00361056
V        4.55007079       7.54660028       7.50966738       0.00772129      -0.01261015       0.00760972
V        4.51082335       7.54380059      10.60577629       0.00996449       0.00797617       0.00268612
V        4.49766317      10.53498254       1.51830336      -0.01619443       0.02244942      -0.02919342
V        3.07876627       9.03041701       3.02298450       0.00966664      -0.01081858       0.00789152
V        4.53694747      10.56358539       4.50793420       0.00252176      -0.01255914       0.00976085
V        3.04459737       9.05090037       6.02224034      -0.00139055      -0.01068218       0.00594273
V        4.61170316      10.47649742       7.47286802       0.02350690       0.00213484       0.01799206
V        3.02259415       8.97855567       9.04512614       0.01337431      -0.00877798       0.00644185
V        4.54383719      10.42283432      10.62666819       0.02401099       0.02354091       0.04140362
V        5.88689999      -0.01275170       0.00297058       0.21264133       0.07265622      -0.08167250
V        7.39663762       1.65295800       1.70479286      -0.16649147       0.09062777      -0.03810734
V        6.02863708       0.01001806       3.03623678      -0.04485498       0.02062402       0.01458299
V        7.57214300       1.52623602       4.51205647       0.01303411      -0.01137002      -0.01991778
V        6.02815299      -0.00490094       6.00545919       0.00696548      -0.00040610       0.00930834
V        7.49717431       1.53960297       7.43944802       0.00894505       0.00640192       0.01278707
V        6.07757988      -0.04974650       9.03283234      -0.02121237       0.04065046      -0.00136210
V        7.27476750       1.85526915      10.27230769       0.09335474      -0.24491187       0.24185471
V        5.99273525       3.07514368       0.04008820      -0.04575624       0.03758640      -0.05586204
V        7.53483532       4.56386134       1.54420118      -0.00982178       0.05325669      -0.00093695
V        6.02488448       3.04955625       3.03654499      -0.01331365       0.00393188      -0.01061907
V        7.55899712       4.52702559       4.49134878       0.00214041      -0.00359354       0.00160133
V        6.01731923       3.01541059       5.98708334      -0.00507545      -0.00746546       0.01154986
V        7.53634290       4.56028934       7.50050270      -0.01043527      -0.00523100       0.00791249
V        5.92213509       3.12014073       8.94309388       0.10388128      -0.09879093       0.10072985
V        7.51797076       4.60817451      10.54630576      -0.01555964       0.00809342      -0.01973840
V        6.03093386       6.06492991       0.02799143       0.01429765       0.03361902      -0.01032273
V        7.61997926       7.64481727       1.43400613       0.05012311       0.07824221       0.00459508
V        6.06306985       6.05957624       2.99666531       0.00428494       0.00677787      -0.00115263
V        7.53460443       7.55505526       4.49045484      -0.00001671       0.00518401       0.00502258
V        6.03472432       6.03593544       5.99254792      -0.00597015      -0.01100673       0.00689855
V        7.50514833       7.51119832       7.53107724       0.01115469       0.00948122       0.01204633
V        6.00833928       6.04552685       9.03925063       0.00447315      -0.01680875       0.00109410
V        7.55627616       7.50446117      10.57086698       0.00210707       0.06740367      -0.00973077
V        5.97573563       9.03187787       0.04403603       0.03454537       0.06470005       0.00413192
V        7.42985443      10.59737527       1.60947415      -0.16996280       0.18525476       0.07537382
V        6.05098299       9.04478805       3.01174539      -0.01884445      -0.01673823       0.03149029
V        7.56496533      10.58308548       4.50270651       0.02415899       0.02556671       0.00297145
V        6.04643459       9.04607202       6.01205772       0.00589081      -0.00584372       0.01200473
V        7.50845149      10.49369751       7.47868822       0.02935986      -0.00148280       0.01101191
V        6.03711702       8.98440346       9.04744005       0.01472849       0.00672214       0.01303158
V        7.64559701      10.15374964      10.68896100      -0.17295558       0.32221700      -0.07279809
V        9.11932410       0.03628169       2.96871789       0.05679320       0.01471843      -0.19264965
V       10.47738182       1.57337119       4.56593942      -0.02295379      -0.01840442      -0.02128926
V        9.03099107       0.01271252       6.00701808      -0.00887923       0.00710725      -0.01414290
V       10.55115509       1.53242092       7.48567283      -0.03087567       0.00431594      -0.03062425
V       10.64835170       1.57090308      10.40625545       0.06437537       0.21177822      -0.22008036
V        9.05297687       3.12739505       0.02640532      -0.04737197       0.17849400      -0.06521833
V       10.50189753       4.49517223       4.52255761      -0.00405007      -0.00027775      -0.01169287
V        9.02510549       3.03751393       6.02239540      -0.00551826       0.00788674      -0.01665949
V       10.51757359       4.50011376       7.55395549      -0.01700668       0.01504315      -0.01119172
V        9.04672035       3.07397584       8.99081019      -0.08258126       0.01386582      -0.00755059
V       10.53531503       4.54079595      10.55176824      -0.00368150       0.07173571      -0.02385220
V        9.03344881       5.99658416       0.01038848       0.01038908       0.05800409       0.01084213
V       10.54135720       7.62471190       1.48532587       0.11902017       0.01176558       0.11521679
V        9.02363128       6.09987731       3.00538814       0.00230925       0.02279968       0.01587549
V       10.53229852       7.49091372       4.52087318       0.03575366      -0.00242992       0.01503125
V        9.01680951       6.02768147       5.99827842      -0.00182643       0.00622328       0.00382439
V        9.02487370       6.03897998       9.06442672      -0.00594995       0.03649098       0.00799073
V       10.46384026       7.62666149      10.64289737       0.00581802       0.08079614       0.04896507
V        9.59861123      10.20186604       0.50587379      -0.73637944      -2.24526969      -0.51842067
V       11.12150343      10.41179263       2.07892843      -0.09415775       0.29449421      -0.08354767
V        9.05983659       9.09348770       3.07672392       0.01968948       0.01193210      -0.01345993
V       10.55836820      10.60527033       4.59392040      -0.01986284      -0.00272259      -0.00736983
V        9.02281885       9.04188662       6.00965335       0.00385161      -0.00527475      -0.00484661
V       10.57251673      10.55440084       7.47330848      -0.02639885       0.00764352      -0.00660245
V        9.05621439       9.03109193       8.97132949       0.01172978       0.06870144       0.05356259
V       10.65421094      10.55247237      10.44141651       0.15701294       0.16129763      -0.14745529
W       10.53077932       4.55803810       1.54200968      -0.00488562       0.03881291      -0.00281799
W       10.54277775       7.50889844       7.55416557      -0.01032342       0.01360870       0.01198964
Zr       3.02218135      -0.01991009       9.01576735       0.02274612      -0.00028430       0.00307789
Zr       8.72337249       0.42549369      -0.18351860       0.86304441       0.18602712       0.56882727
