127
Lattice="12.05239363577153 3.552520251448903e-05 -0.00021928746231963074 3.551963359022388e-05 12.055582501008777 -3.698160418695492e-05 -0.00021928845706198425 -3.698237207466351e-05 12.052580388546156" Properties=species:S:1:pos:R:3:forces:R:3 energy=-1142.1645175632107 free_energy=-1142.1645175632107 stress="0.0037291978603272396 0.0011675348161932103 0.0015540333934537629 0.0011675348161932103 0.004582830341015013 0.0003357017987711912 0.0015540333934537629 0.0003357017987711912 0.0039357690565264124" pbc="T T T"
Cr       3.04111420       9.00949799       0.01912352       0.03063745       0.00654969       0.02855004
Cr       9.02623697       3.06083341       3.03795628      -0.02355192      -0.00044505      -0.05357552
Ti       2.99001606       6.00809232       9.05270754       0.01399693      -0.01145976      -0.00524695
Ti       8.97874147       0.00172272       9.01057370       0.00524556       0.05830004       0.10685999
V        0.04961647       0.03389321       0.05207717       0.12764875       0.08606227      -0.02740178
V        1.62133877       1.51491033       1.48724765      -0.01716386      -0.03252574       0.01790834
V        0.00679463       0.16904922       2.97264541      -0.04697991      -0.33684905      -0.03280976
V        1.48468534       1.50841699       4.47456016      -0.03796856      -0.03627377      -0.04652497
V       -0.00813191       0.00336417       5.98876356      -0.00428040      -0.02104524      -0.00303557
V        1.40036178       1.53699572       7.42777042      -0.00042410      -0.00023524      -0.03547249
V       -0.03802657      -0.01842830       9.02533278      -0.01611214      -0.01346915       0.00784527
V        1.43121308       1.54155331      10.63814408       0.00742597      -0.00127295       0.01560714
V       -0.06268865       2.95160848       0.06097320      -0.02869068       0.02295218      -0.01706480
V        1.51592398       4.50809151       1.51439936      -0.02405949      -0.00363693       0.00344689
V       -0.02697307       2.96628337       2.96877367      -0.04495974      -0.06876868      -0.05454192
V        1.51668889       4.50620273       4.51841982      -0.01695578      -0.00011049      -0.01473866
V       -0.02839832       3.01322641       5.99122780      -0.01788962      -0.01195972      -0.03985734
V        1.43585838       4.46339115       7.52127100      -0.01477765      -0.00565421      -0.01050388
V       -0.02065141       3.02741821       9.05482090       0.00048525       0.02492214      -0.02072907
V        1.44305049       4.50260986      10.60299161       0.01351053       0.00705696       0.00010001
V        0.00828647       6.05838272       0.00078854       0.05182560       0.00010022       0.00999771
V        1.58340641       7.51804043       1.49805624       0.00393334       0.04027155       0.05762504
V        0.02823755       5.99419921       3.03138497       0.01076925       0.03014260       0.01816067
V        1.56344483       7.49537249       4.53622131      -0.04801977       0.04722912      -0.04325710
V        0.00936825       5.98981540       6.03800672       0.00658481       0.00725493      -0.01370815
V        1.50936452       7.54730698       7.51952316       0.01721142      -0.01594392      -0.00841012
V       -0.01351538       6.01238709       9.08979336       0.00562518       0.01733497      -0.01374717
V        1.49917113       7.55150319      10.60553431       0.05531059       0.00234831       0.01643447
V        0.07211825       9.05980902       0.03849711       0.02367226      -0.01944679       0.03593359
V        1.61353122      10.52522646       1.51096700      -0.05651472      -0.02381414       0.01894012
V        0.12548810       8.95808234       3.09859452      -0.16841006       0.35949770      -0.13958260
V        1.53291155      10.55437010       4.49606218       0.05681199      -0.04829058       0.05921210
V        0.02233574       9.03585162       6.02857701       0.00294003      -0.00739807       0.00111811
V        1.43811444      10.46746924       7.45360545      -0.00711166      -0.00279007      -0.00012060
V        0.02381207       9.02468593       9.06103582       0.02214074       0.02094074       0.01063738
V        1.50339755      10.45082931      10.65566140       0.04965439      -0.00277975       0.00924342
V        3.02475060      -0.00766003       0.02832320      -0.00091920       0.00136883       0.01987127
V        4.50623914       1.50767506       1.51938916       0.00680230      -0.00829082      -0.02442266
V        3.02115126      -0.01064136       3.00996416      -0.00111394      -0.02102514      -0.00315997
V        4.50524913       1.48319036       4.48324080      -0.01769700       0.00001050      -0.01018916
V        2.99828172      -0.01902333       5.94704111      -0.00503305      -0.00934714      -0.00799487
V        4.55411605       1.55119296       7.40642280       0.00385273       0.01087508      -0.00085180
V        4.53236461       1.57659711      10.62026962       0.03016565       0.00337253       0.01092394
V        2.98094057       3.04008793       0.01474304      -0.00401332       0.00480001      -0.00017076
V        4.52016785       4.55580534       1.50614290      -0.01324331       0.00966095      -0.00121111
V        3.01178095       3.02510832       3.00878947      -0.03559711      -0.01133769      -0.01286340
V        4.53010044       4.51265999       4.49029816      -0.01215842      -0.01668999      -0.01516379
V        2.98679968       2.99512645       5.99579108      -0.00877868      -0.00420343      -0.01489928
V        4.53943412       4.49448764       7.49279946       0.00936293      -0.02433823       0.01137615
V        2.96920853       3.04122597       9.04377914       0.01364128       0.00232154      -0.01276876
V        4.51465953       4.53039366      10.60764450       0.01251062      -0.00973666      -0.01827021
V        3.00236166       6.01706220       0.01096208       0.02726868      -0.00233154      -0.00159549
V        4.53265795       7.56210428       1.48437567      -0.00523245       0.03362632      -0.00269131
V        3.04895216       6.01706720       3.00913265      -0.02775756       0.00330644       0.00624644
V        4.54815654       7.53742932       4.50227212      -0.01626843      -0.02375477       0.00814718
V        3.01944453       6.01245018       6.02026614       0.00783593      -0.01489737      -0.00679775
V        4.55349895       7.53868285       7.51427337       0.00605078      -0.01508672       0.00665364
V        4.52009220       7.54914711      10.60741718       0.02918657       0.01482871       0.00915068
V        4.50759083      10.53480584       1.50262977       0.01866866       0.00744149      -0.02803079
V        3.07513391       9.02468626       3.02646530      -0.01142657      -0.00724841       0.01335416
V        4.53457050      10.56091871       4.49976674      -0.00081562      -0.00576360      -0.00364467
V        3.04498982       9.04534030       6.02541596      -0.00153627      -0.01678780       0.00543571
V        4.61946763      10.47049471       7.46863559       0.02058469      -0.03361804       0.00677638
V        3.02382009       8.96751541       9.04259285       0.01224061      -0.01738492       0.00017570
V        4.55402357      10.43054238      10.63820423       0.02639537       0.02186285       0.03731811
V        5.97061483       0.01700202      -0.00874133       0.18488028       0.06880086      -0.01817006
V        7.37781241       1.66970118       1.65105950      -0.03523512       0.03806737      -0.11922200
V        6.03212327       0.00917022       3.02657272       0.00504556       0.00074203      -0.02104463
V        7.57349618       1.53463841       4.51083610      -0.00545000       0.01922811      -0.00463494
V        6.02624815      -0.00193073       6.00685322       0.00673171       0.00384436       0.00596328
V        7.49814873       1.54837940       7.45569292       0.00101254       0.01148768       0.03276964
V        6.06525744      -0.02078549       9.02627834      -0.01594325       0.05186111      -0.00073957
V        7.35700348       1.71665266      10.41627507       0.17818464      -0.27895612       0.30542282
V        5.99001280       3.08746805       0.01112151      -0.00910639       0.02715720      -0.06144887
V        7.53274515       4.57890681       1.53662389      -0.00530087       0.03489690      -0.01419432
V        6.01886202       3.04886301       3.02690459      -0.01299844       0.00267206      -0.01299148
V        7.56025552       4.52684492       4.49143739      -0.00451297       0.00251381       0.00746640
V        6.01663751       3.01157975       5.99303553      -0.00352604      -0.01316579       0.00757232
V        7.53193086       4.56007105       7.51310363      -0.01418625      -0.00596192       0.01410922
V        5.96485362       3.08279434       8.98620569       0.07775284      -0.08357002       0.08009087
V        7.51281034       4.61177260      10.54055581      -0.00831908       0.00920854      -0.01077877
V        6.03597724       6.08498659       0.02024152       0.00996872       0.03885815      -0.00885605
V        7.59939675       7.63276577       1.50630532      -0.04979107      -0.02175826       0.15809414
V        6.06251447       6.06648631       2.99609532      -0.00677715       0.01287426       0.00329027
V        7.54460839       7.55457308       4.50466499       0.00627549      -0.00154933       0.04628823
V        6.03356577       6.02933079       6.00030561      -0.01436812      -0.01589628       0.01385219
V        7.50900261       7.51815626       7.54477737       0.01157923       0.01351220       0.03829057
V        6.01157384       6.03738412       9.04304590       0.00977811      -0.01914260       0.01098708
V        7.56257964       7.57604206      10.57423317       0.01349605       0.14222636       0.00851658
V        6.05140574       9.07238257       0.03906944       0.16063516       0.08324672       0.00167005
V        7.48243273      10.63093821       1.61180792       0.11741558       0.07419632       0.01081457
V        6.05414968       9.05344648       3.01912484      -0.00153921       0.02301775       0.01622491
V        7.56514533      10.58154516       4.52028389      -0.00476670      -0.00311285       0.04032008
V        6.04769203       9.04476075       6.01462629       0.01058357      -0.00816706       0.01725738
V        7.51637577      10.49954551       7.49318620       0.02731020       0.00939664       0.03670487
V        6.04015008       8.99464869       9.05005253       0.01185254       0.01918940       0.02298542
V        7.51407082      10.44095069      10.60399016      -0.26820079       0.58626713      -0.17253159
V        9.10292465       0.07490476       3.05009118      -0.03495434       0.08107769       0.17105430
V       10.48676591       1.56458419       4.56410570       0.01788131      -0.02544769      -0.01449122
V        9.02855479       0.01366045       6.00824896       0.00241293       0.00542338       0.00230128
V       10.53856399       1.53451188       7.48859770      -0.02269702       0.01343711       0.00830597
V       10.63360876       1.62221159      10.37051032      -0.02920348       0.11629978      -0.07048709
V        9.01345356       3.15910920      -0.02190200      -0.08451166       0.06898025      -0.09748092
V       10.50488979       4.49456108       4.51836356      -0.00830863      -0.00671755      -0.02633069
V        9.02189189       3.04590049       6.02577380      -0.00489681       0.01098759      -0.00305095
V       10.51277385       4.50801297       7.54820185      -0.01022072       0.01529054      -0.01637781
V        9.00715943       3.07742236       8.99891412      -0.08205877       0.00928839       0.01334474
V       10.52403190       4.56147619      10.54632113      -0.01667709       0.04980515      -0.01373876
V        9.04027081       6.07819343       0.01758371       0.01630706       0.18280909       0.01274528
V       10.59699310       7.61816823       1.54050892       0.11883428      -0.01588338       0.11998043
V        9.03571565       6.09721531       3.02699128       0.01135501      -0.00046757       0.04699150
V       10.56510221       7.50750514       4.52294083       0.05338850       0.03280756       0.00813529
V        9.02182587       6.03141362       6.00677718      -0.00280056       0.00268714       0.02557477
V        9.02109217       6.05973576       9.06820930      -0.00407119       0.03855796       0.00807561
V       10.53867253       7.60624106      10.62306802       0.17542634      -0.04533439      -0.04844684
V        9.25203490       9.50630039       0.19847729      -0.73384060      -1.52419888      -0.64212586
V       10.83567121      10.52315449       1.77964227      -0.60711360       0.21101287      -0.63013998
V        9.07967296       9.09064206       3.07975176       0.03155188      -0.01005170       0.01309564
V       10.56707192      10.59033575       4.56480134       0.01766893      -0.03193407      -0.06256199
V        9.03322319       9.04254713       6.01835014       0.02198367       0.00754736       0.02279488
V       10.55488570      10.55411062       7.48538873      -0.02454968       0.00116531       0.02521142
V        9.05474300       9.07555771       9.05674514       0.00856124       0.08948092       0.18549847
V       10.66989847      10.56971970      10.50544101       0.04163800       0.03526222       0.14408454
W       10.52224021       4.56614415       1.53575945      -0.02518884       0.03066524      -0.02433939
W       10.54098937       7.52349623       7.55914926      -0.00343613       0.03073099       0.00494588
Zr       3.02127370      -0.02053352       9.01051845       0.00469802       0.00596005      -0.00375849
Zr       9.10321516       0.36538628       0.10572280       0.80580535      -0.13965320       0.59911595
