127
Lattice="12.05239363577153 3.552520251448903e-05 -0.00021928746231963074 3.551963359022388e-05 12.055582501008777 -3.698160418695492e-05 -0.00021928845706198425 -3.698237207466351e-05 12.052580388546156" Properties=species:S:1:pos:R:3:forces:R:3 energy=-1139.0684623069224 free_energy=-1139.0684623069224 stress="0.00036961439301508965 -0.0003112883691904741 0.0007477644505585346 -0.0003112883691904741 0.0014230082177397857 -0.0008247322236058157 0.0007477644505585346 -0.0008247322236058157 -4.2640022764177484e-05" pbc="T T T"
Cr       3.03603783       9.00460587       0.01872708       0.01380157      -0.00238354       0.02930398
Cr       9.02435114       3.02604051       3.05488308      -0.02536345      -0.07149909      -0.03961843
Ti       2.98579854       6.02648164       9.05442658       0.00235453       0.01538224       0.00398255
Ti       9.01237242      -0.05278731       8.92961926       0.01301841      -0.00235101       0.01492389
V        0.16845234      -0.10078250      -0.05105033       0.01411276      -0.17917395      -0.14826858
V        1.56840921       1.48817308       1.50576382      -0.15467276      -0.12118425       0.01206792
V        0.02113646       0.06843766       2.99106760       0.20163179      -0.61484405       0.22938090
V        1.49360790       1.52401501       4.48584198      -0.01808524      -0.01743542      -0.02761359
V       -0.00997143       0.01815627       5.99724077      -0.01476259      -0.01900549       0.00423880
V        1.40576180       1.55628335       7.44570432      -0.00455219       0.01840014      -0.01366148
V       -0.06578110      -0.02476393       9.04016517      -0.03436489      -0.01699463      -0.00659106
V        1.44937439       1.57543594      10.59322103       0.01355878       0.02700290      -0.03067450
V       -0.04251672       2.92085632       0.03308422      -0.01080883      -0.01829851      -0.06717464
V        1.51427269       4.49435862       1.51154908      -0.02046997      -0.03116159       0.01056225
V       -0.00167991       2.96433418       2.99194197      -0.01209832      -0.08222588      -0.02459181
V        1.51624496       4.50945273       4.51609987      -0.00301966       0.00847334      -0.00801261
V       -0.02200418       3.01348050       6.00094449      -0.01229440      -0.01668755      -0.03895055
V        1.44813666       4.48343167       7.51767909       0.00761435       0.00854669      -0.01586011
V       -0.01849564       3.00588423       9.06469081       0.00626468       0.00302769      -0.02729623
V        1.44036556       4.49711630      10.59396122       0.00278195      -0.00109030      -0.01261696
V       -0.01771921       6.02643882      -0.00595795       0.00557096      -0.04014631       0.00536804
V        1.56750229       7.49841278       1.48386842      -0.01283005      -0.00667044       0.06772976
V        0.01495230       5.98225033       3.01782650       0.00802596       0.02003587       0.00561735
V        1.56252274       7.49458592       4.53383584      -0.08727585       0.09010897      -0.08771939
V        0.00213025       5.99161429       6.03187567       0.00989334       0.01051781      -0.02512125
V        1.50267141       7.55813707       7.51676626       0.00882378      -0.00225212      -0.01188559
V       -0.01414632       6.00294166       9.08562516      -0.00056459       0.00566850      -0.01162653
V        1.47087377       7.54380609      10.59824147       0.00192338      -0.01130216       0.01050322
V        0.10325540       9.00098096       0.00000606       0.10511242      -0.15198578      -0.00831746
V        1.61240315      10.49465723       1.52989438      -0.07159338      -0.06125323       0.02543032
V        0.13460202       8.91011132       3.10488487      -0.20602077       0.40927404      -0.18648447
V        1.54016624      10.56976595       4.50504320       0.11149277      -0.05326351       0.11409113
V        0.02026600       9.04227976       6.02435578       0.00304253      -0.00732405       0.01175750
V        1.44110189      10.47620731       7.45838040      -0.00303990      -0.00419869       0.02692546
V       -0.01096426       9.03405511       9.06993425      -0.01866764       0.02033813       0.02460144
V        1.48634056      10.43732364      10.61086814       0.01020067       0.01215812      -0.02580389
V        3.03950792      -0.00401268       0.04109191       0.00429085       0.01138588       0.03428670
V        4.50839681       1.52802231       1.54913122      -0.01981146      -0.00201080      -0.00925859
V        3.02843403       0.00898317       3.01174240       0.00571312      -0.00998589      -0.01572913
V        4.51726329       1.49500844       4.49389771      -0.00494484       0.01344084      -0.00614928
V        3.00057886      -0.00351748       5.95389962       0.00506355       0.01229611       0.00481691
V        4.53908132       1.54011769       7.40000213       0.01123841       0.00894087      -0.00140664
V        4.51876207       1.58700371      10.60117875      -0.00925761       0.01688545       0.00471202
V        2.98473150       3.02830287       0.02081151      -0.01725990      -0.01885050       0.00897830
V        4.52840859       4.53691638       1.51151085      -0.00700439      -0.01006373      -0.00356631
V        3.01996812       3.01980369       3.00871643      -0.03028805      -0.02376493      -0.02315438
V        4.53195612       4.52865939       4.49682799      -0.00846771       0.00534893       0.00443727
V        2.99004415       3.01225417       5.99487926      -0.00340909       0.01146525      -0.00789949
V        4.52532962       4.52078828       7.47713222       0.01455897      -0.00350022       0.01530642
V        2.96623608       3.04491342       9.04755077       0.01592430       0.00946177      -0.00307609
V        4.50521267       4.53918161      10.62134679       0.00551468       0.00498246      -0.00952207
V        2.99357046       6.01001375       0.01357277       0.00287749      -0.01397932       0.00507724
V        4.53431349       7.53347329       1.49467702       0.00629095      -0.00809321       0.00324220
V        3.04752857       6.01892233       3.00132743      -0.02268726       0.01158227       0.01161017
V        4.54789484       7.55157174       4.49537928      -0.01237947      -0.00405287       0.00255425
V        3.01267847       6.02379729       6.01873344      -0.00555449       0.00265001      -0.00343762
V        4.54671517       7.55450178       7.50809147       0.00195140       0.00404904       0.00670719
V        4.50828900       7.53787214      10.60923577       0.00559346      -0.00353367       0.01060520
V        4.50567959      10.52161339       1.53526602      -0.00045086      -0.00566156       0.00181838
V        3.07527420       9.03486416       3.02027822       0.00422572      -0.00342609       0.00543744
V        4.54030089      10.57314824       4.50847937       0.00918905       0.00611662       0.01084916
V        3.04309032       9.05342995       6.01800523      -0.00225116      -0.00345310       0.00238307
V        4.60335585      10.48304779       7.46619833       0.01118172       0.01679963       0.00849758
V        3.01532255       8.98829187       9.04810858      -0.00173882       0.01103883       0.01532606
V        4.53016439      10.41914143      10.61111142      -0.00177563       0.01580469       0.01281280
V        5.78035454      -0.03884175       0.03299161       0.01725608       0.02471457      -0.02369742
V        7.49502018       1.60091920       1.69109775       0.02182909      -0.01342275      -0.06622082
V        6.04665891      -0.00031311       3.01572402      -0.01229199      -0.00349120      -0.02593292
V        7.55484347       1.54112646       4.52240546      -0.02258887       0.01787215       0.00168399
V        6.02642148       0.00185244       6.00388201       0.00350124       0.01485180       0.00486340
V        7.49529329       1.54104823       7.43784642       0.00680476       0.01084087       0.00898442
V        6.09444811      -0.06175301       9.04542868       0.00675006       0.02168291       0.01763684
V        7.27611788       1.92791568      10.21729253       0.08726237      -0.10173917       0.12800872
V        6.00086661       3.06075953       0.05744561      -0.02915531       0.00731835      -0.02650380
V        7.53628334       4.52512357       1.54139872      -0.00867992      -0.02156922      -0.00477794
V        6.02820034       3.04305284       3.03502410      -0.00953837      -0.00998535      -0.01007696
V        7.55313585       4.52594890       4.49067115      -0.00897950      -0.00648335       0.00054242
V        6.01826542       3.02268646       5.98473721      -0.00371483       0.00952271       0.00732715
V        7.54018500       4.56213821       7.49453691      -0.00318677      -0.00142772      -0.00314045
V        5.90151518       3.14278985       8.91847636       0.08187196      -0.06786124       0.06923709
V        7.52254769       4.59429147      10.54978947      -0.00870642      -0.02425820      -0.01473376
V        6.02513360       6.04190750       0.03162226       0.00561803      -0.01264579      -0.00367098
V        7.61491437       7.59815113       1.42427254       0.03573212      -0.01556214      -0.01024922
V        6.05906071       6.05427702       2.99587076      -0.00481759      -0.00486864      -0.00013980
V        7.54010287       7.54241667       4.49123745       0.00939749      -0.02067441       0.00547920
V        6.03938093       6.04401681       5.99052953       0.00406232       0.00564196       0.00419202
V        7.50199297       7.50056183       7.52366722       0.00586911      -0.01107937      -0.00209280
V        6.00808569       6.05017154       9.03995523       0.00691815      -0.00825022       0.00449427
V        7.56540365       7.46464658      10.58357342       0.02191325      -0.00856367       0.01543137
V        5.95586773       9.00175179       0.05596641      -0.00070373       0.00912485       0.02889479
V        7.56863669      10.46097049       1.58918104       0.12171472      -0.07449080       0.02947793
V        6.06573327       9.05726525       2.99511813       0.00993275       0.00707350      -0.00243552
V        7.54431108      10.57151031       4.51249619      -0.01826766      -0.00020902       0.02202393
V        6.04642085       9.05111732       6.00949865       0.00764311       0.00579992       0.00777706
V        7.49451576      10.49995705       7.47554274       0.00576691       0.00989803       0.00513748
V        6.02288055       8.98244480       9.03456577      -0.01127512       0.00133985      -0.01080161
V        7.64488919       9.98222014      10.61910134      -0.19421880       0.00636589      -0.22263549
V        9.01975143      -0.04959159       3.09449852      -0.15195708      -0.16440516       0.06766708
V       10.50491960       1.52977761       4.51435226       0.02997612      -0.10843092      -0.12658063
V        9.04813251       0.01433568       6.01675481       0.02594637       0.01089644       0.00645464
V       10.56357173       1.53140600       7.49422959      -0.00651968       0.00163822      -0.01595495
V       10.59790115       1.48352602      10.51599872      -0.02918212       0.05009845      -0.01429412
V        9.05820094       2.99264183       0.02366679      -0.04263601      -0.08052810      -0.07701631
V       10.50756807       4.47717362       4.51533224       0.00526020      -0.03992066      -0.02802299
V        9.03097729       3.02528194       6.02155777       0.00804737      -0.01750994      -0.02075790
V       10.52224711       4.48896184       7.55227237      -0.00538183      -0.00701947      -0.01525624
V        9.07096163       3.06782047       8.98276397      -0.04222110      -0.00180323      -0.01972365
V       10.53654378       4.49911516      10.55322269       0.00198261      -0.00667662      -0.02434663
V        9.03030546       5.94159479       0.00678586       0.00338731      -0.04973391       0.00193072
V       10.49981486       7.57722337       1.44462712       0.03701509      -0.08193447       0.03448413
V        9.02733284       6.06504565       2.99862039       0.00711586      -0.04745368       0.00353305
V       10.54866472       7.48724019       4.50942597       0.07094164      -0.01155484      -0.00737691
V        9.01831976       6.01592227       5.99530127       0.00296770      -0.01655082      -0.00183147
V        9.02648248       6.01796852       9.05958123      -0.00355257      -0.00528906      -0.00015200
V       10.45202975       7.58876772      10.63663534      -0.01050115       0.00517537       0.03249629
V       10.30645553      12.48383319       1.13272948       0.63327437       2.26041211       0.70174064
V       10.82318968      10.25144367       1.76254960      -0.71556301       0.00821118      -0.73944625
V        9.04951715       9.02295349       3.13838604       0.00007558      -0.13244256       0.10752129
V       10.58472734      10.57291923       4.55382148       0.03636755      -0.07328232      -0.09119991
V        9.03443774       9.04580916       6.01913688       0.02812690       0.00115677       0.01212019
V       10.58916745      10.54766551       7.47875218       0.00208902      -0.00811572       0.00219563
V        9.06734461       9.00076064       8.94194722       0.03553214       0.01399456       0.00297570
V       10.56086175      10.46250449      10.63548600      -0.02459759      -0.00464171       0.26238494
W       10.53230255       4.50535268       1.53694207      -0.00244201      -0.06101514      -0.01383429
W       10.55020311       7.49862533       7.55116350       0.00474808      -0.00621364       0.00521671
Zr       3.00984591      -0.01019865       9.01347632       0.00064969       0.02123628       0.00133948
Zr       8.35397494       0.14994290      -0.41637072       0.19225889      -0.36183816       0.15479698
