 vasp.6.4.2 20Jul23 (build Sep 20 2024 16:56:05) complex                         
 executed on              LinuxNV date 2025.04.25  14:23:12
 running    4 mpi-ranks, with    8 threads/rank, on    1 nodes
 distrk:  each k-point on    4 cores,    1 groups
 distr:  one band on NCORE=   1 cores,    4 groups
 OpenACC runtime initialized ...    4 GPUs detected


--------------------------------------------------------------------------------------------------------


 INCAR:
   ENCUT = 520.000000
   POTIM = 0.200000
   SIGMA = 0.200000
   EDIFF = 1.00e-06
   EDIFFG = -1.00e-02
   ALGO = Normal
   GGA = PE
   PREC = Accurate
   IBRION = 2
   ISIF = 2
   ISMEAR = 1
   LORBIT = 11
   NELM = 100
   NSW = -1
   LCHARG = .TRUE.
   LWAVE = .FALSE.
   LREAL = .FALSE.

 POTCAR:    PAW_PBE Cr_pv 02Aug2007               
 POTCAR:    PAW_PBE Ti_pv 07Sep2000               
 POTCAR:    PAW_PBE V_pv 07Sep2000                
 POTCAR:    PAW_PBE W_sv 04Sep2015                
 POTCAR:    PAW_PBE Zr_sv 04Jan2005               
 POTCAR:    PAW_PBE Cr_pv 02Aug2007               
   SHA256 =  c9a7df34d3cdbacf1090e328ef39c0b420964e11c23f63548d1ac9dd218cdba0 Cr_pv/POTCAR          
   COPYR  = (c) Copyright 02Aug2007 Georg Kresse                                                    
   COPYR  = This file is part of the software VASP. Any use, copying, and all other rights are regul
   COPYR  = If you do not have a valid VASP license, you may not use, copy or distribute this file. 
   VRHFIN =Cr : p6d5s1                                                                              
   LEXCH  = PE                                                                                      
   EATOM  =  1647.9177 eV,  121.1185 Ry                                                             
                                                                                                    
   TITEL  = PAW_PBE Cr_pv 02Aug2007                                                                 
   LULTRA =        F    use ultrasoft PP ?                                                          
   IUNSCR =        1    unscreen: 0-lin 1-nonlin 2-no                                               
   RPACOR =    2.080    partial core radius                                                         
   POMASS =   51.996; ZVAL   =   12.000    mass and valenz                                          
   RCORE  =    2.300    outmost cutoff radius                                                       
   RWIGS  =    2.500; RWIGS  =    1.323    wigner-seitz radius (au A)                               
   ENMAX  =  265.681; ENMIN  =  199.261 eV                                                          
   ICORE  =        3    local potential                                                             
   LCOR   =        T    correct aug charges                                                         
   LPAW   =        T    paw PP                                                                      
   EAUG   =  519.424                                                                                
   DEXC   =    0.000                                                                                
   RMAX   =    2.356    core radius for proj-oper                                                   
   RAUG   =    1.300    factor for augmentation sphere                                              
   RDEP   =    2.447    radius for radial grids                                                     
   RDEPT  =    1.882    core radius for aug-charge                                                  
                                                                                                    
   Atomic configuration                                                                             
    8 entries                                                                                       
     n  l   j            E        occ.                                                              
     1  0  0.50     -5880.4963   2.0000                                                             
     2  0  0.50      -667.0865   2.0000                                                             
     2  1  1.50      -560.6250   6.0000                                                             
     3  0  0.50       -73.9860   2.0000                                                             
     3  1  1.50       -45.4378   6.0000                                                             
     3  2  2.50        -2.9137   5.0000                                                             
     4  0  0.50        -4.0071   1.0000                                                             
     4  3  2.50        -1.3606   0.0000                                                             
   Description                                                                                      
     l       E           TYP  RCUT    TYP  RCUT                                                     
     1    -45.4377911     23  2.000                                                                 
     1      1.3605826     23  2.000                                                                 
     2     -2.9136672     23  2.300                                                                 
     2     -4.2742498     23  2.300                                                                 
     0     -4.0071320     23  2.300                                                                 
     0      9.4498803     23  2.300                                                                 
     3      2.7211652     23  2.300                                                                 
  local pseudopotential read in
  partial core-charges read in
  partial kinetic energy density read in
  atomic valenz-charges read in
  non local Contribution for L=            1  read in
    real space projection operators read in
  non local Contribution for L=            1  read in
    real space projection operators read in
  non local Contribution for L=            2  read in
    real space projection operators read in
  non local Contribution for L=            2  read in
    real space projection operators read in
  non local Contribution for L=            0  read in
    real space projection operators read in
  non local Contribution for L=            0  read in
    real space projection operators read in
    PAW grid and wavefunctions read in
 
   number of l-projection  operators is LMAX  =            6
   number of lm-projection operators is LMMAX =           18
 
 POTCAR:    PAW_PBE Ti_pv 07Sep2000               
   SHA256 =  f757a1b2c6d082f4c628fa3d987464a8763bf92e53844ac0500b0e2ddc9ce5c0 Ti_pv/POTCAR          
   COPYR  = (c) Copyright 07Sep2000 Georg Kresse                                                    
   COPYR  = This file is part of the software VASP. Any use, copying, and all other rights are regul
   COPYR  = If you do not have a valid VASP license, you may not use, copy or distribute this file. 
   VRHFIN =Ti: d3 s1                                                                                
   LEXCH  = PE                                                                                      
   EATOM  =  1042.5995 eV,   76.6289 Ry                                                             
                                                                                                    
   TITEL  = PAW_PBE Ti_pv 07Sep2000                                                                 
   LULTRA =        F    use ultrasoft PP ?                                                          
   IUNSCR =        1    unscreen: 0-lin 1-nonlin 2-no                                               
   RPACOR =    2.200    partial core radius                                                         
   POMASS =   47.880; ZVAL   =   10.000    mass and valenz                                          
   RCORE  =    2.500    outmost cutoff radius                                                       
   RWIGS  =    2.500; RWIGS  =    1.323    wigner-seitz radius (au A)                               
   ENMAX  =  222.335; ENMIN  =  166.751 eV                                                          
   RCLOC  =    1.701    cutoff for local pot                                                        
   LCOR   =        T    correct aug charges                                                         
   LPAW   =        T    paw PP                                                                      
   EAUG   =  482.848                                                                                
   DEXC   =    0.000                                                                                
   RMAX   =    2.564    core radius for proj-oper                                                   
   RAUG   =    1.300    factor for augmentation sphere                                              
   RDEP   =    2.538    radius for radial grids                                                     
   RDEPT  =    1.952    core radius for aug-charge                                                  
                                                                                                    
   Atomic configuration                                                                             
    8 entries                                                                                       
     n  l   j            E        occ.                                                              
     1  0  0.50     -4865.3608   2.0000                                                             
     2  0  0.50      -533.1368   2.0000                                                             
     2  1  1.50      -440.5031   6.0000                                                             
     3  0  0.50       -59.3186   2.0000                                                             
     3  1  1.50       -35.7012   6.0000                                                             
     3  2  2.50        -1.9157   3.0000                                                             
     4  0  0.50        -3.7291   1.0000                                                             
     4  3  2.50        -1.3606   0.0000                                                             
   Description                                                                                      
     l       E           TYP  RCUT    TYP  RCUT                                                     
     1    -35.7012140     23  2.300                                                                 
     1     -1.3605826     23  2.300                                                                 
     2     -1.9156996     23  2.500                                                                 
     2     -0.4063033     23  2.500                                                                 
     0     -3.7290856     23  2.500                                                                 
     0     20.4087390     23  2.500                                                                 
  local pseudopotential read in
  partial core-charges read in
  partial kinetic energy density read in
  atomic valenz-charges read in
  non local Contribution for L=            1  read in
    real space projection operators read in
  non local Contribution for L=            1  read in
    real space projection operators read in
  non local Contribution for L=            2  read in
    real space projection operators read in
  non local Contribution for L=            2  read in
    real space projection operators read in
  non local Contribution for L=            0  read in
    real space projection operators read in
  non local Contribution for L=            0  read in
    real space projection operators read in
    PAW grid and wavefunctions read in
 
   number of l-projection  operators is LMAX  =            6
   number of lm-projection operators is LMMAX =           18
 
 POTCAR:    PAW_PBE V_pv 07Sep2000                
   SHA256 =  1175d3c8cb4ffd1d150a520fa74fae5c3ec72c0849b5615a94a5372dd2cf07f7 V_pv/POTCAR           
   COPYR  = (c) Copyright 07Sep2000 Georg Kresse                                                    
   COPYR  = This file is part of the software VASP. Any use, copying, and all other rights are regul
   COPYR  = If you do not have a valid VASP license, you may not use, copy or distribute this file. 
   VRHFIN =V: p6 d4 s1                                                                              
   LEXCH  = PE                                                                                      
   EATOM  =  1321.6206 eV,   97.1364 Ry                                                             
                                                                                                    
   TITEL  = PAW_PBE V_pv 07Sep2000                                                                  
   LULTRA =        F    use ultrasoft PP ?                                                          
   IUNSCR =        1    unscreen: 0-lin 1-nonlin 2-no                                               
   RPACOR =    1.700    partial core radius                                                         
   POMASS =   50.941; ZVAL   =   11.000    mass and valenz                                          
   RCORE  =    2.300    outmost cutoff radius                                                       
   RWIGS  =    2.300; RWIGS  =    1.217    wigner-seitz radius (au A)                               
   ENMAX  =  263.673; ENMIN  =  197.755 eV                                                          
   RCLOC  =    1.779    cutoff for local pot                                                        
   LCOR   =        T    correct aug charges                                                         
   LPAW   =        T    paw PP                                                                      
   EAUG   =  598.473                                                                                
   DEXC   =    0.000                                                                                
   RMAX   =    2.359    core radius for proj-oper                                                   
   RAUG   =    1.300    factor for augmentation sphere                                              
   RDEP   =    2.430    radius for radial grids                                                     
   RDEPT  =    1.700    core radius for aug-charge                                                  
                                                                                                    
   Atomic configuration                                                                             
    8 entries                                                                                       
     n  l   j            E        occ.                                                              
     1  0  0.50     -5360.7193   2.0000                                                             
     2  0  0.50      -598.4546   2.0000                                                             
     2  1  1.50      -499.0155   6.0000                                                             
     3  0  0.50       -66.5711   2.0000                                                             
     3  1  1.50       -40.5282   6.0000                                                             
     3  2  2.50        -2.4291   4.0000                                                             
     4  0  0.50        -3.8743   1.0000                                                             
     4  3  2.50        -1.3606   0.0000                                                             
   Description                                                                                      
     l       E           TYP  RCUT    TYP  RCUT                                                     
     1    -40.5282431     23  2.000                                                                 
     1      5.4423304     23  2.000                                                                 
     2     -2.4290905     23  2.300                                                                 
     2     -1.0472488     23  2.300                                                                 
     0     -3.8742754     23  2.300                                                                 
     0     27.2116520     23  2.300                                                                 
  local pseudopotential read in
  partial core-charges read in
  partial kinetic energy density read in
  atomic valenz-charges read in
  non local Contribution for L=            1  read in
    real space projection operators read in
  non local Contribution for L=            1  read in
    real space projection operators read in
  non local Contribution for L=            2  read in
    real space projection operators read in
  non local Contribution for L=            2  read in
    real space projection operators read in
  non local Contribution for L=            0  read in
    real space projection operators read in
  non local Contribution for L=            0  read in
    real space projection operators read in
    PAW grid and wavefunctions read in
 
   number of l-projection  operators is LMAX  =            6
   number of lm-projection operators is LMMAX =           18
 
 POTCAR:    PAW_PBE W_sv 04Sep2015                
   SHA256 =  931c2d770f65867ef30f3db3421922900fc0890ebac5c3e12f63b6a2064023d7 W_sv/POTCAR           
   COPYR  = (c) Copyright 04Sep2015 Georg Kresse                                                    
   COPYR  = This file is part of the software VASP. Any use, copying, and all other rights are regul
   COPYR  = If you do not have a valid VASP license, you may not use, copy or distribute this file. 
   VRHFIN =W : 5p6s5d                                                                               
   LEXCH  = PE                                                                                      
   EATOM  =  1865.5791 eV,  137.1162 Ry                                                             
                                                                                                    
   TITEL  = PAW_PBE W_sv 04Sep2015                                                                  
   LULTRA =        F    use ultrasoft PP ?                                                          
   IUNSCR =        1    unscreen: 0-lin 1-nonlin 2-no                                               
   RPACOR =    2.330    partial core radius                                                         
   POMASS =  183.850; ZVAL   =   14.000    mass and valenz                                          
   RCORE  =    2.500    outmost cutoff radius                                                       
   RWIGS  =    2.750; RWIGS  =    1.455    wigner-seitz radius (au A)                               
   ENMAX  =  223.057; ENMIN  =  167.293 eV                                                          
   ICORE  =        3    local potential                                                             
   LCOR   =        T    correct aug charges                                                         
   LPAW   =        T    paw PP                                                                      
   EAUG   =  373.438                                                                                
   DEXC   =    0.000                                                                                
   RMAX   =    2.565    core radius for proj-oper                                                   
   RAUG   =    1.300    factor for augmentation sphere                                              
   RDEP   =    2.539    radius for radial grids                                                     
   RDEPT  =    2.126    core radius for aug-charge                                                  
                                                                                                    
   Atomic configuration                                                                             
   15 entries                                                                                       
     n  l   j            E        occ.                                                              
     1  0  0.50    -69465.5834   2.0000                                                             
     2  0  0.50    -11986.2640   2.0000                                                             
     2  1  1.50    -10479.8613   6.0000                                                             
     3  0  0.50     -2759.0756   2.0000                                                             
     3  1  1.50     -2313.1855   6.0000                                                             
     3  2  2.50     -1801.1183  10.0000                                                             
     4  0  0.50      -567.6789   2.0000                                                             
     4  1  1.50      -421.4692   6.0000                                                             
     4  2  2.50      -236.3471  10.0000                                                             
     4  3  3.50       -31.2665  14.0000                                                             
     5  0  0.50       -77.1084   2.0000                                                             
     6  0  0.50        -5.1438   1.0000                                                             
     5  1  1.50       -41.3856   6.0000                                                             
     5  2  2.50        -3.3185   5.0000                                                             
     5  3  2.50        -1.3606   0.0000                                                             
   Description                                                                                      
     l       E           TYP  RCUT    TYP  RCUT                                                     
     0    -77.1084470     23  2.100                                                                 
     0     -5.1437956     23  2.300                                                                 
     1    -41.3855615     23  2.500                                                                 
     1     -2.7211652     23  2.500                                                                 
     2     -3.3185025     23  2.500                                                                 
     2     -1.5965151     23  2.500                                                                 
     3     -1.3605826     23  2.500                                                                 
  local pseudopotential read in
  partial core-charges read in
  partial kinetic energy density read in
  kinetic energy density of atom read in
  atomic valenz-charges read in
  non local Contribution for L=            0  read in
    real space projection operators read in
  non local Contribution for L=            0  read in
    real space projection operators read in
  non local Contribution for L=            1  read in
    real space projection operators read in
  non local Contribution for L=            1  read in
    real space projection operators read in
  non local Contribution for L=            2  read in
    real space projection operators read in
  non local Contribution for L=            2  read in
    real space projection operators read in
    PAW grid and wavefunctions read in
 
   number of l-projection  operators is LMAX  =            6
   number of lm-projection operators is LMMAX =           18
 
 POTCAR:    PAW_PBE Zr_sv 04Jan2005               
   SHA256 =  25aed69cb10325f9d37c5c68912b61a17387d1f8e4f1d804860ffa10c8a4bf76 Zr_sv/POTCAR          
   COPYR  = (c) Copyright 04Jan2005 Georg Kresse                                                    
   COPYR  = This file is part of the software VASP. Any use, copying, and all other rights are regul
   COPYR  = If you do not have a valid VASP license, you may not use, copy or distribute this file. 
   VRHFIN =Zr: 4s4p5s4d                                                                             
   LEXCH  = PE                                                                                      
   EATOM  =  1284.2219 eV,   94.3876 Ry                                                             
                                                                                                    
   TITEL  = PAW_PBE Zr_sv 04Jan2005                                                                 
   LULTRA =        F    use ultrasoft PP ?                                                          
   IUNSCR =        1    unscreen: 0-lin 1-nonlin 2-no                                               
   RPACOR =    2.200    partial core radius                                                         
   POMASS =   91.224; ZVAL   =   12.000    mass and valenz                                          
   RCORE  =    2.500    outmost cutoff radius                                                       
   RWIGS  =    3.070; RWIGS  =    1.625    wigner-seitz radius (au A)                               
   ENMAX  =  229.898; ENMIN  =  172.424 eV                                                          
   ICORE  =        3    local potential                                                             
   LCOR   =        T    correct aug charges                                                         
   LPAW   =        T    paw PP                                                                      
   EAUG   =  461.257                                                                                
   DEXC   =    0.000                                                                                
   RMAX   =    2.561    core radius for proj-oper                                                   
   RAUG   =    1.300    factor for augmentation sphere                                              
   RDEP   =    2.597    radius for radial grids                                                     
   RDEPT  =    2.007    core radius for aug-charge                                                  
                                                                                                    
   Atomic configuration                                                                             
   11 entries                                                                                       
     n  l   j            E        occ.                                                              
     1  0  0.50    -17820.0161   2.0000                                                             
     2  0  0.50     -2467.0882   2.0000                                                             
     2  1  1.50     -2199.6095   6.0000                                                             
     3  0  0.50      -402.4863   2.0000                                                             
     3  1  1.50      -315.3675   6.0000                                                             
     3  2  2.50      -172.4472  10.0000                                                             
     4  0  0.50       -52.4146   2.0000                                                             
     5  0  0.50        -3.8421   1.0000                                                             
     4  1  1.50       -30.5054   6.0000                                                             
     4  2  2.50        -2.3341   3.0000                                                             
     4  3  2.50        -1.3606   0.0000                                                             
   Description                                                                                      
     l       E           TYP  RCUT    TYP  RCUT                                                     
     0    -52.4145962     23  2.200                                                                 
     0     -3.8421270     23  2.500                                                                 
     1    -30.5053914     23  2.200                                                                 
     1     20.4087390     23  2.200                                                                 
     2     -2.3340816     23  2.500                                                                 
     2     -0.6120942     23  2.500                                                                 
     3     -4.0817478     23  2.500                                                                 
  local pseudopotential read in
  partial core-charges read in
  partial kinetic energy density read in
  atomic valenz-charges read in
  non local Contribution for L=            0  read in
    real space projection operators read in
  non local Contribution for L=            0  read in
    real space projection operators read in
  non local Contribution for L=            1  read in
    real space projection operators read in
  non local Contribution for L=            1  read in
    real space projection operators read in
  non local Contribution for L=            2  read in
    real space projection operators read in
  non local Contribution for L=            2  read in
    real space projection operators read in
    PAW grid and wavefunctions read in
 
   number of l-projection  operators is LMAX  =            6
   number of lm-projection operators is LMMAX =           18
 
 -----------------------------------------------------------------------------
|                                                                             |
|               ----> ADVICE to this user running VASP <----                  |
|                                                                             |
|     You have a (more or less) 'large supercell' and for larger cells it     |
|     might be more efficient to use real-space projection operators.         |
|     Therefore, try LREAL= Auto in the INCAR file.                           |
|     Mind: For very accurate calculation, you might also keep the            |
|     reciprocal projection scheme (i.e. LREAL=.FALSE.).                      |
|                                                                             |
 -----------------------------------------------------------------------------

  PAW_PBE Cr_pv 02Aug2007               :
 energy of atom  1       EATOM=-1647.9177
 kinetic energy error for atom=    0.0057 (will be added to EATOM!!)
  PAW_PBE Ti_pv 07Sep2000               :
 energy of atom  2       EATOM=-1042.5995
 kinetic energy error for atom=    0.0019 (will be added to EATOM!!)
  PAW_PBE V_pv 07Sep2000                :
 energy of atom  3       EATOM=-1321.6206
 kinetic energy error for atom=    0.0054 (will be added to EATOM!!)
  PAW_PBE W_sv 04Sep2015                :
 energy of atom  4       EATOM=-1865.5791
 kinetic energy error for atom=    0.0026 (will be added to EATOM!!)
  PAW_PBE Zr_sv 04Jan2005               :
 energy of atom  5       EATOM=-1284.2219
 kinetic energy error for atom=    0.0043 (will be added to EATOM!!)
 
 
 POSCAR: Cr Ti V  W  Zr
  positions in cartesian coordinates
  No initial velocities read in
 exchange correlation table for  LEXCH =        8
   RHO(1)=    0.500       N(1)  =     2000
   RHO(2)=  100.500       N(2)  =     4000
 


--------------------------------------------------------------------------------------------------------


 ion  position               nearest neighbor table
   1  0.002  0.401  0.007-  49 2.52  21 2.54  17 2.55  25 2.57  44 2.58 107 2.58  10 2.60  24 2.64
                            48 2.93  45 2.94  26 2.99
   2  0.401  0.005  0.799-   3 2.51  59 2.55  81 2.55  80 2.56  75 2.56  39 2.58  54 2.59  56 2.61
                            84 2.93  55 2.96  38 2.98  60 2.98  76 3.00
   3  0.403  0.198  0.801-  84 2.48   2 2.51  85 2.55  60 2.57  66 2.58  63 2.59  38 2.59  43 2.61
                            81 2.94  39 2.96  42 2.96  59 2.98  88 3.01
   4  0.399  0.605  0.598-  51 2.51  46 2.52  98 2.52  74 2.54  92 2.56  70 2.57  69 2.59   9 2.69
                            50 3.02  97 3.02  75 3.04 119 3.12 118 3.20
   5  0.601  0.399  0.397- 114 2.55  87 2.57  86 2.57  61 2.58 119 2.58 109 2.59 120 2.62  91 2.64
                            82 3.01 121 3.03 110 3.04  65 3.05
   6  0.792  0.997  0.194-  99 2.49  77 2.50  94 2.54 122 2.61 100 2.63 104 2.64  13 2.69   7 2.78
                           105 2.87 115 2.95  76 2.99  14 2.99  95 3.03
   7  0.999  0.201  0.244- 104 2.56  13 2.58  46 2.60  18 2.75  22 2.76   6 2.78  99 2.81  41 2.84
                            21 2.85
   8  0.200  0.802  0.002-  30 2.62  57 2.64  52 2.66  35 2.67  71 2.74  29 2.74  55 2.76  48 2.77
                            34 2.93  36 2.99  72 3.04 123 3.08
   9  0.400  0.401  0.601-  93 2.62  18 2.66  87 2.68 118 2.68  66 2.68   4 2.69 119 2.69  63 2.70
                            70 2.90  92 2.98  88 3.02  46 3.03  42 3.03
  10  0.804  0.204  0.806- 102 2.54 111 2.56   1 2.60  20 2.66 103 2.67  84 2.70  79 2.71 106 2.72
                            24 2.93 107 2.95  17 2.99  83 3.03 101 3.04
  11  0.792  0.588  0.800- 111 2.54  29 2.60  87 2.62 112 2.63  93 2.68 114 2.78 124 2.78  30 2.78
                            88 2.89  25 3.04 110 3.04
  12  0.009  0.014  0.014-  41 2.46  13 2.51  17 2.58  35 2.60  99 2.69  30 2.71  16 2.71 124 2.72

  13  0.996  0.992  0.193-  12 2.51 115 2.53  14 2.58  31 2.58   7 2.58  36 2.63  18 2.65   6 2.69
                            30 2.85 122 2.98
  14  0.003  0.017  0.400-  42 2.57  13 2.58 100 2.61  15 2.66  37 2.66 122 2.70  32 2.78  18 2.79
                            19 2.83   6 2.99
  15  0.002  0.003  0.598-  19 2.56 116 2.59  43 2.60  33 2.61 101 2.62  38 2.62  16 2.64  14 2.66

  16  0.004  0.006  0.802-  20 2.52  40 2.57  39 2.63  15 2.64 102 2.66 117 2.67  12 2.71  34 2.72
                           124 3.01
  17  1.000  0.205  0.006-   1 2.55  45 2.55 102 2.57  12 2.58 103 2.61  40 2.64  20 2.68  10 2.99

  18  0.195  0.194  0.400-  37 2.56  42 2.61  41 2.62  13 2.65  62 2.65   9 2.66   7 2.75  14 2.79
                            46 2.80 118 2.86 119 3.15
  19  0.999  0.196  0.593-  15 2.56 106 2.56  47 2.60 100 2.60  23 2.64  42 2.66  20 2.69  14 2.83
                           118 2.88 105 2.92
  20  0.003  0.198  0.800-  16 2.52  24 2.57 101 2.57  44 2.58  43 2.61  10 2.66  17 2.68  19 2.69
                            47 2.91
  21  0.999  0.401  0.201-   1 2.54 108 2.59  22 2.60 103 2.60  45 2.60  50 2.60  26 2.63   7 2.85

  22  0.999  0.404  0.401- 109 2.57  51 2.59  23 2.59  27 2.60  21 2.60  46 2.70 104 2.71   7 2.76
                           105 2.91 118 2.91
  23  0.992  0.396  0.594- 110 2.51 105 2.53  22 2.59 118 2.61  28 2.63  19 2.64  24 2.70 123 2.72

  24  0.999  0.393  0.802-  20 2.57 111 2.60 106 2.60   1 2.64  47 2.65  29 2.67  48 2.67  23 2.70
                            10 2.93 123 3.12
  25  1.000  0.595  0.001-   1 2.57  26 2.59  48 2.60 111 2.61 112 2.65  52 2.66  29 2.66  30 2.68
                            11 3.04
  26  0.998  0.601  0.200-  27 2.56  31 2.57 113 2.59  25 2.59 107 2.61  49 2.62  21 2.63  53 2.65
                             1 2.99
  27  0.002  0.603  0.398-  26 2.56  50 2.57  28 2.59  22 2.60 121 2.62  32 2.63 108 2.64  54 2.64

  28  0.001  0.600  0.596-  27 2.59 109 2.62 114 2.63  23 2.63  55 2.64  33 2.65  51 2.67  29 2.68
                           121 3.01 123 3.11
  29  0.990  0.591  0.793- 110 2.52  11 2.60  34 2.62  25 2.66  24 2.67  28 2.68   8 2.74 123 2.75

  30  0.004  0.804  0.011-  31 2.54  36 2.57   8 2.62 115 2.67  25 2.68  12 2.71  11 2.78  34 2.80
                            13 2.85 124 3.09
  31  0.001  0.800  0.203-  30 2.54  32 2.55  26 2.57  13 2.58  52 2.59  37 2.60 112 2.64 122 2.65

  32  0.005  0.806  0.402-  31 2.55  53 2.57  38 2.60  33 2.60  27 2.63 116 2.64 113 2.69  14 2.78
                           122 3.03 121 3.05
  33  0.003  0.805  0.599-  34 2.59  32 2.60  15 2.61 117 2.61  54 2.61  39 2.61 121 2.65  28 2.65
                            55 2.92
  34  0.014  0.801  0.800-  55 2.42  33 2.59  35 2.61  29 2.62  16 2.72 124 2.75 114 2.76  30 2.80
                             8 2.93
  35  0.203  0.007  0.003-  40 2.55  61 2.58  12 2.60  34 2.61  56 2.63  36 2.64  39 2.64   8 2.67

  36  0.204  0.002  0.203-  62 2.55  30 2.57  41 2.61  57 2.61  37 2.62  52 2.63  13 2.63  35 2.64
                             8 2.99
  37  0.201  0.000  0.402-  18 2.56  53 2.57  38 2.58  31 2.60  63 2.61  36 2.62  58 2.63  14 2.66

  38  0.203  0.004  0.601-  42 2.50  54 2.57  37 2.58   3 2.59  39 2.59  59 2.60  32 2.60  15 2.62
                             2 2.98
  39  0.204  0.004  0.800-  55 2.50  43 2.55   2 2.58  60 2.59  38 2.59  33 2.61  16 2.63  35 2.64
                             3 2.96
  40  0.199  0.201  0.002-  35 2.55  16 2.57  44 2.57  65 2.58  43 2.64  41 2.64  17 2.64  60 2.66

  41  0.199  0.200  0.203-  12 2.46 119 2.59  36 2.61  18 2.62  45 2.63  40 2.64  61 2.69   7 2.84

  42  0.206  0.197  0.604-  38 2.50  66 2.57  43 2.57  14 2.57  63 2.58  18 2.61 118 2.63  19 2.66
                             3 2.96   9 3.03
  43  0.203  0.198  0.800-  47 2.49  39 2.55  42 2.57  15 2.60  64 2.61  20 2.61   3 2.61  40 2.64

  44  0.196  0.396  0.001-  48 2.52  40 2.57  45 2.58   1 2.58  20 2.58  47 2.62  68 2.64  64 2.65

  45  0.198  0.399  0.200-  46 2.54  17 2.55  44 2.58  49 2.59  21 2.60  41 2.63  65 2.64  69 2.65
                             1 2.94 119 3.02
  46  0.209  0.412  0.402-   4 2.52  45 2.54  50 2.57 118 2.59   7 2.60 119 2.62  22 2.70  18 2.80
                            51 2.90  69 2.91   9 3.03
  47  0.198  0.386  0.798-  43 2.49  66 2.57  19 2.60  44 2.62  24 2.65  67 2.69 123 2.74 118 2.78
                            20 2.91
  48  0.202  0.594  0.012-  49 2.46  44 2.52  25 2.60  72 2.60  67 2.63  24 2.67   8 2.77 123 2.79
                            68 2.88   1 2.93
  49  0.196  0.596  0.198-  48 2.46   1 2.52  50 2.56  45 2.59  26 2.62  52 2.63  68 2.64  73 2.65

  50  0.198  0.603  0.397-  51 2.51  49 2.56  46 2.57  27 2.57  53 2.59  21 2.60  74 2.62  69 2.63
                             4 3.02
  51  0.204  0.603  0.591-   4 2.51  50 2.51  22 2.59  54 2.63  75 2.65  28 2.67 123 2.76 118 2.77
                            46 2.90
  52  0.200  0.800  0.205-  53 2.56  31 2.59  58 2.60  49 2.63  36 2.63  72 2.64  25 2.66   8 2.66

  53  0.201  0.804  0.402-  52 2.56  54 2.57  32 2.57  37 2.57  50 2.59  59 2.59  73 2.62  26 2.65

  54  0.203  0.807  0.600-  55 2.53  53 2.57  38 2.57   2 2.59  33 2.61  74 2.62  51 2.63  27 2.64

  55  0.200  0.809  0.794-  34 2.42  39 2.50  54 2.53  75 2.60  56 2.61  28 2.64   8 2.76 123 2.81
                            33 2.92   2 2.96
  56  0.401  0.003  0.998-  82 2.58  60 2.59  76 2.59   2 2.61  55 2.61  35 2.63  71 2.63  57 2.66

  57  0.405  0.003  0.203- 120 2.57  61 2.60  36 2.61  77 2.63  72 2.64  58 2.64   8 2.64  56 2.66

  58  0.401  0.999  0.402-  73 2.58  83 2.59  52 2.60  62 2.60  59 2.62  78 2.62  37 2.63  57 2.64
                           120 3.06
  59  0.401  1.000  0.602-   2 2.55  63 2.56  84 2.58  79 2.59  74 2.59  53 2.59  38 2.60  58 2.62
                             3 2.98
  60  0.402  0.201  0.998-   3 2.57  81 2.57  64 2.58  86 2.58  56 2.59  39 2.59  61 2.61  40 2.66
                             2 2.98
  61  0.404  0.201  0.199-  82 2.57  35 2.58   5 2.58  57 2.60  60 2.61  65 2.63  62 2.67  41 2.69
                           119 2.98 120 3.02
  62  0.399  0.196  0.400-  36 2.55  87 2.55  58 2.60  63 2.64  18 2.65 119 2.66 120 2.66  61 2.67

  63  0.403  0.196  0.603-  59 2.56  42 2.58   3 2.59  83 2.59  88 2.59  37 2.61  62 2.64   9 2.70
                            84 2.89
  64  0.400  0.399  0.001-  65 2.55  66 2.57  90 2.57  60 2.58  67 2.58  43 2.61  85 2.61  44 2.65

  65  0.399  0.399  0.196-  64 2.55  40 2.58 119 2.59  68 2.59  86 2.60  91 2.62  61 2.63  45 2.64
                             5 3.05
  66  0.399  0.394  0.803-  64 2.57  42 2.57  47 2.57   3 2.58  89 2.58  88 2.61  70 2.67   9 2.68

  67  0.401  0.597  0.003-  89 2.56  68 2.57  95 2.58  64 2.58  48 2.63  47 2.69  71 2.72  70 2.76
                           123 3.01
  68  0.400  0.599  0.200-  67 2.57  90 2.58  69 2.59  65 2.59  72 2.62  96 2.62  49 2.64  44 2.64
                            48 2.88
  69  0.401  0.604  0.400-  73 2.59   4 2.59  68 2.59  97 2.60  91 2.61  50 2.63  45 2.65 119 2.67
                            46 2.91
  70  0.406  0.597  0.794-  93 2.39   4 2.57  94 2.63 123 2.66  66 2.67  67 2.76  75 2.77 118 2.87
                             9 2.90  98 2.91
  71  0.417  0.813  0.013-  77 2.43  94 2.49  72 2.60  56 2.63  75 2.71  67 2.72   8 2.74 123 2.77
                            95 2.88  76 2.89
  72  0.401  0.800  0.202-  95 2.57  73 2.59  78 2.60  48 2.60  71 2.60  68 2.62  57 2.64  52 2.64
                             8 3.04
  73  0.400  0.801  0.399-  58 2.58  79 2.58  69 2.59  72 2.59  74 2.60  96 2.60  53 2.62  49 2.65

  74  0.401  0.800  0.598-   4 2.54  75 2.59  97 2.59  59 2.59  73 2.60  80 2.61  50 2.62  54 2.62
                            98 2.89
  75  0.400  0.808  0.798-  98 2.52  76 2.54   2 2.56  74 2.59  55 2.60  51 2.65  71 2.71  70 2.77
                             4 3.04 123 3.07
  76  0.597  0.999  0.996-  75 2.54  99 2.56  80 2.57 104 2.57  56 2.59  81 2.60  94 2.61  77 2.62
                            71 2.89   6 2.99   2 3.00
  77  0.604  1.000  0.199-  71 2.43   6 2.50  95 2.61  76 2.62 105 2.63  57 2.63  82 2.64  78 2.65
                           120 3.02
  78  0.602  0.998  0.400- 100 2.55  96 2.57  72 2.60  79 2.60 106 2.60  58 2.62 120 2.64  77 2.65

  79  0.597  0.997  0.598-  97 2.54  73 2.58  83 2.59  59 2.59  78 2.60  80 2.63 101 2.64  10 2.71

  80  0.597  0.002  0.800-   2 2.56  76 2.57  98 2.59  74 2.61  84 2.62 102 2.63  79 2.63 103 2.64

  81  0.597  0.198  0.997-   2 2.55  60 2.57  85 2.58  84 2.58 103 2.58  82 2.58  76 2.60 108 2.63
                             3 2.94
  82  0.600  0.199  0.196- 104 2.51  61 2.57  56 2.58  81 2.58  86 2.59 109 2.61 120 2.63  77 2.64
                             5 3.01
  83  0.600  0.197  0.600-  79 2.59  63 2.59  58 2.59 111 2.61  87 2.62  84 2.62 120 2.66 106 2.68
                            10 3.03
  84  0.594  0.201  0.800-   3 2.48  88 2.56  59 2.58  81 2.58  83 2.62  80 2.62 107 2.64  10 2.70
                            63 2.89   2 2.93
  85  0.597  0.395  0.997-   3 2.55  81 2.58  64 2.61  88 2.61  89 2.61  86 2.62 113 2.63 107 2.64

  86  0.598  0.398  0.199-   5 2.57  60 2.58  82 2.59  65 2.60  85 2.62  90 2.63 121 2.64 108 2.64

  87  0.598  0.392  0.590-  62 2.55   5 2.57 110 2.61  83 2.62  11 2.62   9 2.68  92 2.70  88 2.71
                           120 2.94 119 3.00
  88  0.599  0.398  0.799-  84 2.56  63 2.59  66 2.61  85 2.61 112 2.63 111 2.63  93 2.67  87 2.71
                            11 2.89   3 3.01   9 3.02
  89  0.595  0.595  1.000-  67 2.56  90 2.57  93 2.57  66 2.58  85 2.61 112 2.63 122 2.67  94 2.69

  90  0.595  0.597  0.197-  89 2.57  64 2.57  68 2.58  91 2.59  95 2.61  86 2.63 113 2.64 116 2.69
                           121 3.03 122 3.05
  91  0.599  0.600  0.397-  90 2.59  96 2.61  92 2.61  69 2.61  65 2.62 121 2.63 117 2.63   5 2.64
                           119 2.99
  92  0.591  0.597  0.593- 119 2.55   4 2.56  91 2.61  97 2.65  87 2.70 114 2.70  93 2.74 124 2.75
                             9 2.98
  93  0.594  0.603  0.806-  70 2.39  89 2.57 115 2.60   9 2.62  98 2.66  88 2.67  11 2.68  92 2.74
                           124 3.16
  94  0.599  0.802  0.999-  71 2.49   6 2.54 115 2.56  76 2.61  70 2.63  98 2.64  95 2.64  89 2.69
                           122 3.03
  95  0.596  0.798  0.199-  72 2.57  67 2.58 100 2.60  96 2.61  77 2.61  90 2.61 122 2.63  94 2.64
                            71 2.88   6 3.03
  96  0.599  0.801  0.401-  97 2.56  78 2.57  73 2.60  91 2.61  95 2.61  68 2.62 116 2.63 101 2.65

  97  0.600  0.804  0.598-  79 2.54  96 2.56  74 2.59  69 2.60  98 2.63 117 2.64  92 2.65 102 2.69
                             4 3.02 124 3.08
  98  0.588  0.799  0.793-  75 2.52   4 2.52  80 2.59  97 2.63  94 2.64  93 2.66  99 2.73 124 2.78
                            74 2.89  70 2.91
  99  0.798  0.002  0.007-   6 2.49  76 2.56 103 2.58 115 2.65 102 2.68  12 2.69  98 2.73   7 2.81
                           124 3.10
 100  0.796  0.997  0.397-  78 2.55 116 2.56 105 2.58  95 2.60  19 2.60  14 2.61 101 2.62   6 2.63
                           122 2.97
 101  0.803  0.005  0.602- 117 2.54 106 2.55  20 2.57  15 2.62 100 2.62  79 2.64  96 2.65 102 2.65
                            10 3.04
 102  0.803  0.010  0.807-  10 2.54  17 2.57  80 2.63 101 2.65  16 2.66 124 2.67  99 2.68  97 2.69

 103  0.798  0.200  0.006- 104 2.48  81 2.58  99 2.58 107 2.60  21 2.60  17 2.61  80 2.64  10 2.67

 104  0.790  0.198  0.193- 103 2.48  82 2.51 105 2.53   7 2.56  76 2.57 108 2.58   6 2.64  22 2.71

 105  0.814  0.198  0.393- 104 2.53  23 2.53 100 2.58  77 2.63 109 2.68 106 2.69 120 2.78   6 2.87
                            22 2.91  19 2.92
 106  0.804  0.198  0.595- 101 2.55  19 2.56  78 2.60  24 2.60 110 2.61  83 2.68 105 2.69  10 2.72
                           120 3.02
 107  0.801  0.398  0.001- 108 2.56 112 2.58   1 2.58 103 2.60  26 2.61 111 2.63  84 2.64  85 2.64
                            10 2.95
 108  0.800  0.399  0.198- 107 2.56 104 2.58  21 2.59 113 2.60 109 2.61  81 2.63  86 2.64  27 2.64
                           121 3.03
 109  0.800  0.399  0.397-  22 2.57   5 2.59 108 2.61  82 2.61  28 2.62 110 2.62 121 2.64 105 2.68
                           120 3.00
 110  0.802  0.398  0.598-  23 2.51  29 2.52 120 2.59  87 2.61 106 2.61 109 2.62 114 2.63 111 2.65
                            11 3.04   5 3.04
 111  0.800  0.397  0.800-  11 2.54  10 2.56  24 2.60  83 2.61  25 2.61 107 2.63  88 2.63 110 2.65

 112  0.799  0.595  0.005- 113 2.51 107 2.58  88 2.63  89 2.63  11 2.63  31 2.64  25 2.65 115 2.68
                           122 3.04
 113  0.798  0.597  0.198- 112 2.51 121 2.58  26 2.59 108 2.60  85 2.63  90 2.64 122 2.66  32 2.69

 114  0.796  0.594  0.591-   5 2.55 121 2.58  28 2.63 110 2.63  92 2.70 117 2.75  34 2.76  11 2.78
                           124 3.11
 115  0.796  0.799  0.005-  13 2.53 122 2.54  94 2.56  93 2.60  99 2.65  30 2.67 112 2.68 124 2.74
                             6 2.95
 116  0.802  0.805  0.401- 117 2.50 100 2.56 122 2.58  15 2.59  96 2.63 121 2.64  32 2.64  90 2.69

 117  0.801  0.806  0.592- 116 2.50 101 2.54  33 2.61  91 2.63  97 2.64  16 2.67 124 2.72 114 2.75
                           121 3.01
 118  0.181  0.380  0.578-  46 2.59  23 2.61  42 2.63   9 2.68  51 2.77  47 2.78  18 2.86  70 2.87
                            19 2.88  22 2.91 123 3.17   4 3.20
 119  0.402  0.398  0.395-  92 2.55   5 2.58  41 2.59  65 2.59  46 2.62  62 2.66  69 2.67   9 2.69
                            61 2.98  91 2.99  87 3.00  45 3.02   4 3.12  18 3.15
 120  0.603  0.200  0.399-  57 2.57 110 2.59   5 2.62  82 2.63  78 2.64  62 2.66  83 2.66 105 2.78
                            87 2.94 109 3.00  61 3.02 106 3.02  77 3.02  58 3.06
 121  0.800  0.601  0.398- 114 2.58 113 2.58  27 2.62  91 2.63  86 2.64 109 2.64 116 2.64  33 2.65
                           117 3.01  28 3.01 108 3.03   5 3.03  90 3.03  32 3.05
 122  0.799  0.802  0.202- 115 2.54 116 2.58   6 2.61  95 2.63  31 2.65 113 2.66  89 2.67  14 2.70
                           100 2.97  13 2.98  94 3.03  32 3.03 112 3.04  90 3.05
 123  0.206  0.600  0.802-  70 2.66  23 2.72  47 2.74  29 2.75  51 2.76  71 2.77  48 2.79  55 2.81
                            67 3.01  75 3.07   8 3.08  28 3.11  24 3.12 118 3.17
 124  0.806  0.805  0.801- 102 2.67 117 2.72  12 2.72 115 2.74  34 2.75  92 2.75  11 2.78  98 2.78
                            16 3.01  97 3.08  30 3.09  99 3.10 114 3.11  93 3.16
 
  LATTYP: Found a triclinic cell.
 ALAT       =    36.9484934985
 B/A-ratio  =     0.3535186554
 C/A-ratio  =     0.5772698908
 COS(alpha) =     0.0002416466
 COS(beta)  =     0.2887267664
 COS(gamma) =     0.9428158987
  
  Lattice vectors:
  
 A1 = (  30.1710571640, -15.0866049150, -15.0762340640)
 A2 = (   7.5429280460,  -7.5406991980,  -7.5403885230)
 A3 = (  15.0799980970,  15.0841177710,  -0.0085907380)


Analysis of symmetry for initial positions (statically):
=====================================================================
 Subroutine PRICEL returns:
 Original cell was already a primitive cell.
 

 Routine SETGRP: Setting up the symmetry group for a 
 triclinic supercell.


 Subroutine GETGRP returns: Found  1 space group operations
 (whereof  1 operations were pure point group operations)
 out of a pool of  2 trial point group operations.


The static configuration has the point symmetry C_1 .


Analysis of symmetry for dynamics (positions and initial velocities):
=====================================================================
 Subroutine PRICEL returns:
 Original cell was already a primitive cell.
 

 Routine SETGRP: Setting up the symmetry group for a 
 triclinic supercell.


 Subroutine GETGRP returns: Found  1 space group operations
 (whereof  1 operations were pure point group operations)
 out of a pool of  2 trial point group operations.


The dynamic configuration has the point symmetry C_1 .


 Subroutine INISYM returns: Found  1 space group operations
 (whereof  1 operations are pure point group operations),
 and found     1 'primitive' translations


----------------------------------------------------------------------------------------

                                     Primitive cell                                     

  volume of cell :    1718.3948

  direct lattice vectors                    reciprocal lattice vectors
    -7.542928046  7.540699198  7.540388523     0.000002930  0.066329719  0.066289639
     7.547476001 -7.553831611  7.558065225     0.066270222  0.000080482  0.066212056
     7.537725071  7.548625092 -7.553522243     0.066313004  0.066294918  0.000037688

  length of vectors
    13.061981740 13.082397179 13.071141431     0.093776052  0.093679160  0.093767969

  position of ions in fractional coordinates (direct lattice)
     0.002396242  0.401235156  0.007475992
     0.401249720  0.005032139  0.799142680
     0.402765138  0.197747262  0.801193422
     0.398918046  0.604804543  0.598012305
     0.600919192  0.398901064  0.396933291
     0.792459075  0.996752876  0.194209706
     0.999058629  0.201408536  0.244178873
     0.200304193  0.802239093  0.002342857
     0.399651860  0.400667012  0.600559257
     0.803558696  0.204447857  0.805516263
     0.792126300  0.588148041  0.799690677
     0.009499265  0.013644020  0.013685079
     0.996323937  0.991652975  0.193370377
     0.002717755  0.017444673  0.400345800
     0.001573807  0.003401580  0.598127117
     0.003960060  0.006283980  0.802223774
     0.999654106  0.205007073  0.005959760
     0.195387715  0.193848635  0.400221223
     0.998662163  0.196072195  0.592543056
     0.002892368  0.197854216  0.799995612
     0.999344685  0.400534392  0.200696268
     0.999146615  0.404383850  0.400646819
     0.992390115  0.395960863  0.593963309
     0.998760319  0.393466640  0.802053292
     0.999699558  0.594688588  0.000900005
     0.997904693  0.600673574  0.200367338
     0.001762372  0.603019068  0.398483823
     0.000690589  0.600341919  0.595540802
     0.989977801  0.591382892  0.793470586
     0.003522345  0.803776702  0.010961322
     0.001404487  0.799594495  0.203457099
     0.004594184  0.805677472  0.401502069
     0.002749616  0.805100375  0.599469251
     0.014141226  0.801073562  0.799750947
     0.202626727  0.007460614  0.002661283
     0.204280152  0.001746123  0.203033628
     0.200737301  0.000190460  0.401794905
     0.203349931  0.003590804  0.601033117
     0.203626591  0.003564778  0.799560290
     0.199287169  0.201113894  0.001779912
     0.199171981  0.199623848  0.203230246
     0.206116838  0.196751561  0.604245545
     0.202621316  0.198081258  0.800146517
     0.195739771  0.395988697  0.001044853
     0.197866981  0.399200638  0.199985957
     0.209055490  0.412466982  0.402356923
     0.197942871  0.386134514  0.798126464
     0.201600372  0.594075305  0.011840176
     0.196033564  0.595697365  0.198344392
     0.198205996  0.603178623  0.397299895
     0.203992162  0.602610411  0.591141298
     0.200253867  0.800103442  0.204909169
     0.201315574  0.803771150  0.402413910
     0.203261530  0.806602637  0.600310174
     0.199707779  0.809259622  0.793649778
     0.400799529  0.003363836  0.997946126
     0.404765155  0.003216652  0.202653562
     0.401458350  0.998768225  0.401659945
     0.401175770  0.999787672  0.602329810
     0.401568978  0.201426288  0.998489035
     0.404343769  0.200857377  0.198931336
     0.398842434  0.195878170  0.399622428
     0.402519519  0.195879308  0.602687329
     0.399616968  0.398650734  0.001282242
     0.398645576  0.399316203  0.195920576
     0.399247352  0.394474142  0.803404193
     0.400763968  0.597065260  0.002921048
     0.399716055  0.599352732  0.200182292
     0.400843416  0.603504996  0.400175589
     0.405774343  0.597451735  0.793897891
     0.416840567  0.813286950  0.012721964
     0.401114345  0.800371800  0.201972037
     0.399710362  0.800530421  0.399451073
     0.400840631  0.800057332  0.598275803
     0.399919277  0.808289306  0.798360001
     0.596528621  0.998756831  0.995517240
     0.603639109  0.999671084  0.198680482
     0.601710271  0.997981591  0.400325714
     0.597253625  0.997284144  0.597575917
     0.596517379  0.001626085  0.800017880
     0.597020951  0.197855048  0.997104535
     0.599563912  0.199257863  0.195937567
     0.600142159  0.196700376  0.600205993
     0.593524521  0.201113749  0.799811813
     0.596650087  0.394622514  0.997105181
     0.597758594  0.397555855  0.198664289
     0.598160360  0.392381289  0.590149170
     0.598848622  0.398109976  0.799248648
     0.595153460  0.594773131  0.999914270
     0.595298288  0.597471820  0.197088368
     0.598783349  0.600400086  0.397389723
     0.590531491  0.596547535  0.592746259
     0.594402399  0.602500542  0.805668300
     0.598905974  0.801622531  0.999446498
     0.595790451  0.797920555  0.199327814
     0.599037855  0.800838773  0.400820935
     0.600247464  0.804190556  0.598161178
     0.588095021  0.799138422  0.793490119
     0.797602685  0.002170676  0.007197999
     0.795686267  0.997159077  0.396631083
     0.803068019  0.004512922  0.602052087
     0.802723115  0.010035458  0.806630683
     0.798090703  0.199503957  0.006233900
     0.790245276  0.197549638  0.192904636
     0.813613529  0.197859493  0.393016261
     0.804128258  0.197716716  0.595416969
     0.801440458  0.397597025  0.001454511
     0.799771069  0.399195401  0.197601783
     0.799503598  0.398972002  0.396758501
     0.801797191  0.397526785  0.597642472
     0.799800173  0.396606257  0.799576649
     0.798549075  0.594799237  0.005473170
     0.797829809  0.597206942  0.198009049
     0.796250733  0.594404807  0.590879333
     0.796015169  0.798811286  0.005400321
     0.801771446  0.804664023  0.400670215
     0.801197961  0.806347210  0.592281134
     0.181243894  0.379661139  0.578376933
     0.402319567  0.398319869  0.394722263
     0.603309676  0.199752412  0.398563879
     0.800405199  0.601337129  0.397548498
     0.799158583  0.802195219  0.201521880
     0.205973773  0.599662833  0.801952107
     0.805602767  0.805008835  0.801301293

  ion indices of the primitive-cell ions
   primitive index   ion index
                 1           1
                 2           2
                 3           3
                 4           4
                 5           5
                 6           6
                 7           7
                 8           8
                 9           9
                10          10
                11          11
                12          12
                13          13
                14          14
                15          15
                16          16
                17          17
                18          18
                19          19
                20          20
                21          21
                22          22
                23          23
                24          24
                25          25
                26          26
                27          27
                28          28
                29          29
                30          30
                31          31
                32          32
                33          33
                34          34
                35          35
                36          36
                37          37
                38          38
                39          39
                40          40
                41          41
                42          42
                43          43
                44          44
                45          45
                46          46
                47          47
                48          48
                49          49
                50          50
                51          51
                52          52
                53          53
                54          54
                55          55
                56          56
                57          57
                58          58
                59          59
                60          60
                61          61
                62          62
                63          63
                64          64
                65          65
                66          66
                67          67
                68          68
                69          69
                70          70
                71          71
                72          72
                73          73
                74          74
                75          75
                76          76
                77          77
                78          78
                79          79
                80          80
                81          81
                82          82
                83          83
                84          84
                85          85
                86          86
                87          87
                88          88
                89          89
                90          90
                91          91
                92          92
                93          93
                94          94
                95          95
                96          96
                97          97
                98          98
                99          99
               100         100
               101         101
               102         102
               103         103
               104         104
               105         105
               106         106
               107         107
               108         108
               109         109
               110         110
               111         111
               112         112
               113         113
               114         114
               115         115
               116         116
               117         117
               118         118
               119         119
               120         120
               121         121
               122         122
               123         123
               124         124

----------------------------------------------------------------------------------------

 
 
 KPOINTS: KPOINTS generated by db_to_vasp         

Automatic generation of k-mesh.
 Grid dimensions read from file:
 generate k-points for:    4    4    4

 Generating k-lattice:

  Cartesian coordinates                     Fractional coordinates (reciprocal lattice)
     0.000000732  0.016582430  0.016572410     0.250000000 -0.000000000 -0.000000000
     0.016567555  0.000020120  0.016553014    -0.000000000  0.250000000 -0.000000000
     0.016578251  0.016573730  0.000009422     0.000000000 -0.000000000  0.250000000

  Length of vectors
     0.023444013  0.023419790  0.023441992

  Shift w.r.t. Gamma in fractional coordinates (k-lattice)
     0.000000000  0.000000000  0.000000000

 
 Subroutine IBZKPT returns following result:
 ===========================================
 
 Found     36 irreducible k-points:
 
 Following reciprocal coordinates:
            Coordinates               Weight
  0.000000  0.000000  0.000000      1.000000
  0.250000  0.000000  0.000000      2.000000
  0.500000  0.000000  0.000000      1.000000
  0.000000  0.250000  0.000000      2.000000
  0.250000  0.250000  0.000000      2.000000
  0.500000  0.250000  0.000000      2.000000
 -0.250000  0.250000  0.000000      2.000000
  0.000000  0.500000  0.000000      1.000000
  0.250000  0.500000  0.000000      2.000000
  0.500000  0.500000  0.000000      1.000000
  0.000000  0.000000  0.250000      2.000000
  0.250000  0.000000  0.250000      2.000000
  0.500000  0.000000  0.250000      2.000000
 -0.250000  0.000000  0.250000      2.000000
  0.000000  0.250000  0.250000      2.000000
  0.250000  0.250000  0.250000      2.000000
  0.500000  0.250000  0.250000      2.000000
 -0.250000  0.250000  0.250000      2.000000
  0.000000  0.500000  0.250000      2.000000
  0.250000  0.500000  0.250000      2.000000
  0.500000  0.500000  0.250000      2.000000
 -0.250000  0.500000  0.250000      2.000000
  0.000000 -0.250000  0.250000      2.000000
  0.250000 -0.250000  0.250000      2.000000
  0.500000 -0.250000  0.250000      2.000000
 -0.250000 -0.250000  0.250000      2.000000
  0.000000  0.000000  0.500000      1.000000
  0.250000  0.000000  0.500000      2.000000
  0.500000  0.000000  0.500000      1.000000
  0.000000  0.250000  0.500000      2.000000
  0.250000  0.250000  0.500000      2.000000
  0.500000  0.250000  0.500000      2.000000
 -0.250000  0.250000  0.500000      2.000000
  0.000000  0.500000  0.500000      1.000000
  0.250000  0.500000  0.500000      2.000000
  0.500000  0.500000  0.500000      1.000000
 
 Following cartesian coordinates:
            Coordinates               Weight
  0.000000  0.000000  0.000000      1.000000
  0.000001  0.016582  0.016572      2.000000
  0.000001  0.033165  0.033145      1.000000
  0.016568  0.000020  0.016553      2.000000
  0.016568  0.016603  0.033125      2.000000
  0.016569  0.033185  0.049698      2.000000
  0.016567 -0.016562 -0.000019      2.000000
  0.033135  0.000040  0.033106      1.000000
  0.033136  0.016623  0.049678      2.000000
  0.033137  0.033205  0.066251      1.000000
  0.016578  0.016574  0.000009      2.000000
  0.016579  0.033156  0.016582      2.000000
  0.016580  0.049739  0.033154      2.000000
  0.016578 -0.000009 -0.016563      2.000000
  0.033146  0.016594  0.016562      2.000000
  0.033147  0.033176  0.033135      2.000000
  0.033147  0.049759  0.049707      2.000000
  0.033145  0.000011 -0.000010      2.000000
  0.049713  0.016614  0.033115      2.000000
  0.049714  0.033196  0.049688      2.000000
  0.049715  0.049779  0.066260      2.000000
  0.049713  0.000032  0.016543      2.000000
  0.000011  0.016554 -0.016544      2.000000
  0.000011  0.033136  0.000029      2.000000
  0.000012  0.049718  0.016601      2.000000
  0.000010 -0.000029 -0.033116      2.000000
  0.033157  0.033147  0.000019      1.000000
  0.033157  0.049730  0.016591      2.000000
  0.033158  0.066312  0.033164      1.000000
  0.049724  0.033168  0.016572      2.000000
  0.049725  0.049750  0.033144      2.000000
  0.049726  0.066332  0.049717      2.000000
  0.049723  0.016585 -0.000001      2.000000
  0.066292  0.033188  0.033125      1.000000
  0.066292  0.049770  0.049697      2.000000
  0.066293  0.066353  0.066270      1.000000
 


--------------------------------------------------------------------------------------------------------




 Dimension of arrays:
   k-points           NKPTS =     36   k-points in BZ     NKDIM =     36   number of bands    NBANDS=    832
   number of dos      NEDOS =    301   number of ions     NIONS =    124
   non local maximal  LDIM  =      6   non local SUM 2l+1 LMDIM =     18
   total plane-waves  NPLWV = 941192
   max r-space proj   IRMAX =      1   max aug-charges    IRDMAX=  31460
   dimension x,y,z NGX =    98 NGY =   98 NGZ =   98
   dimension x,y,z NGXF=   196 NGYF=  196 NGZF=  196
   support grid    NGXF=   196 NGYF=  196 NGZF=  196
   ions per type =               6   5 106   5   2
   NGX,Y,Z   is equivalent  to a cutoff of  12.47, 12.45, 12.46 a.u.
   NGXF,Y,Z  is equivalent  to a cutoff of  24.95, 24.91, 24.93 a.u.

 SYSTEM =  unknown system                          
 POSCAR =  Cr Ti V  W  Zr                          

 Startparameter for this run:
   NWRITE =      2    write-flag & timer
   PREC   = accura    normal or accurate (medium, high low for compatibility)
   ISTART =      0    job   : 0-new  1-cont  2-samecut
   ICHARG =      2    charge: 1-file 2-atom 10-const
   ISPIN  =      1    spin polarized calculation?
   LNONCOLLINEAR =      F non collinear calculations
   LSORBIT =      F    spin-orbit coupling
   INIWAV =      1    electr: 0-lowe 1-rand  2-diag
   LASPH  =      F    aspherical Exc in radial PAW
 Electronic Relaxation 1
   ENCUT  =  520.0 eV  38.22 Ry    6.18 a.u.  24.29 24.32 24.30*2*pi/ulx,y,z
   ENINI  =  520.0     initial cutoff
   ENAUG  =  598.5 eV  augmentation charge cutoff
   NELM   =    100;   NELMIN=  2; NELMDL= -5     # of ELM steps 
   EDIFF  = 0.1E-05   stopping-criterion for ELM
   LREAL  =      F    real-space projection
   NLSPLINE    = F    spline interpolate recip. space projectors
   LCOMPAT=      F    compatible to vasp.4.4
   GGA_COMPAT  = T    GGA compatible to vasp.4.4-vasp.4.6
   LMAXPAW     = -100 max onsite density
   LMAXMIX     =    2 max onsite mixed and CHGCAR
   VOSKOWN=      0    Vosko Wilk Nusair interpolation
   ROPT   =    0.00000   0.00000   0.00000   0.00000
   ROPT   =    0.00000
 Ionic relaxation
   EDIFFG = -.1E-01   stopping-criterion for IOM
   NSW    =     -1    number of steps for IOM
   NBLOCK =      1;   KBLOCK =      1    inner block; outer block 
   IBRION =      2    ionic relax: 0-MD 1-quasi-New 2-CG
   NFREE  =      1    steps in history (QN), initial steepest desc. (CG)
   ISIF   =      2    stress and relaxation
   IWAVPR =     11    prediction:  0-non 1-charg 2-wave 3-comb
   ISYM   =      2    0-nonsym 1-usesym 2-fastsym
   LCORR  =      T    Harris-Foulkes like correction to forces

   POTIM  = 0.2000    time-step for ionic-motion
   TEIN   =    0.0    initial temperature
   TEBEG  =    0.0;   TEEND  =   0.0 temperature during run
   SMASS  =  -3.00    Nose mass-parameter (am)
   estimated Nose-frequenzy (Omega)   =  0.10E-29 period in steps = 0.31E+47 mass=  -0.390E-26a.u.
   SCALEE = 1.0000    scale energy and forces
   NPACO  =    256;   APACO  = 10.0  distance and # of slots for P.C.
   PSTRESS=    0.0 pullay stress

  Mass of Ions in am
   POMASS =  52.00 47.88 50.94183.85 91.22
  Ionic Valenz
   ZVAL   =  12.00 10.00 11.00 14.00 12.00
  Atomic Wigner-Seitz radii
   RWIGS  =  -1.00 -1.00 -1.00 -1.00 -1.00
  virtual crystal weights 
   VCA    =   1.00  1.00  1.00  1.00  1.00
   NELECT =    1382.0000    total number of electrons
   NUPDOWN=      -1.0000    fix difference up-down

 DOS related values:
   EMIN   =  10.00;   EMAX   =-10.00  energy-range for DOS
   EFERMI =   0.00;   METHOD = LEGACY      
   ISMEAR =     1;   SIGMA  =   0.20  broadening in eV -4-tet -1-fermi 0-gaus

 Electronic relaxation 2 (details)
   IALGO  =     38    algorithm
   LDIAG  =      T    sub-space diagonalisation (order eigenvalues)
   LSUBROT=      F    optimize rotation matrix (better conditioning)
   TURBO    =      0    0=normal 1=particle mesh
   IRESTART =      0    0=no restart 2=restart with 2 vectors
   NREBOOT  =      0    no. of reboots
   NMIN     =      0    reboot dimension
   EREF     =   0.00    reference energy to select bands
   IMIX   =      4    mixing-type and parameters
     AMIX     =   0.40;   BMIX     =  1.00
     AMIX_MAG =   1.60;   BMIX_MAG =  1.00
     AMIN     =   0.10
     WC   =   100.;   INIMIX=   1;  MIXPRE=   1;  MAXMIX= -45

 Intra band minimization:
   WEIMIN = 0.0010     energy-eigenvalue tresh-hold
   EBREAK =  0.30E-09  absolut break condition
   DEPER  =   0.30     relativ break condition  

   TIME   =   0.40     timestep for ELM

  volume/ion in A,a.u.               =      13.86        93.52
  Fermi-wavevector in a.u.,A,eV,Ry     =   1.522427  2.876970 31.535373  2.317785
  Thomas-Fermi vector in A             =   2.631008
 
 Write flags
   LWAVE        =      F    write WAVECAR
   LDOWNSAMPLE  =      F    k-point downsampling of WAVECAR
   LCHARG       =      T    write CHGCAR
   LVTOT        =      F    write LOCPOT, total local potential
   LVHAR        =      F    write LOCPOT, Hartree potential only
   LELF         =      F    write electronic localiz. function (ELF)
   LORBIT       =     11    0 simple, 1 ext, 2 COOP (PROOUT), +10 PAW based schemes


 Dipole corrections
   LMONO  =      F    monopole corrections only (constant potential shift)
   LDIPOL =      F    correct potential (dipole corrections)
   IDIPOL =      0    1-x, 2-y, 3-z, 4-all directions 
   EPSILON=  1.0000000 bulk dielectric constant

 Exchange correlation treatment:
   GGA     =    PE    GGA type
   LEXCH   =     8    internal setting for exchange type
   LIBXC   =     F    Libxc                    
   VOSKOWN =     0    Vosko Wilk Nusair interpolation
   LHFCALC =     F    Hartree Fock is set to
   LHFONE  =     F    Hartree Fock one center treatment
   AEXX    =    0.0000 exact exchange contribution

 Linear response parameters
   LEPSILON=     F    determine dielectric tensor
   LRPA    =     F    only Hartree local field effects (RPA)
   LNABLA  =     F    use nabla operator in PAW spheres
   LVEL    =     F    velocity operator in full k-point grid
   CSHIFT  =0.1000    complex shift for real part using Kramers Kronig
   OMEGAMAX=  -1.0    maximum frequency
   DEG_THRESHOLD= 0.2000000E-02 threshold for treating states as degnerate
   RTIME   =   -0.100 relaxation time in fs
  (WPLASMAI=    0.000 imaginary part of plasma frequency in eV, 0.658/RTIME)
   DFIELD  = 0.0000000 0.0000000 0.0000000 field for delta impulse in time
 
  Optional k-point grid parameters
   LKPOINTS_OPT  =     F    use optional k-point grid
   KPOINTS_OPT_MODE=     1    mode for optional k-point grid
 
 Orbital magnetization related:
   ORBITALMAG=     F  switch on orbital magnetization
   LCHIMAG   =     F  perturbation theory with respect to B field
   DQ        =  0.001000  dq finite difference perturbation B field
   LLRAUG    =     F  two centre corrections for induced B field
   LBONE     =     F  B-component reconstruction in AE one-centre
   LVGVCALC  =     T  calculate vGv susceptibility
   LVGVAPPL  =     F  apply vGv susceptibility instead of pGv for G=0

 Random number generation:
   RANDOM_GENERATOR = DEFAULT
   PCG_SEED         = not used


--------------------------------------------------------------------------------------------------------


 conjugate gradient relaxation of ions
 charge density and potential will be updated during run
 non-spin polarized calculation
 Variant of blocked Davidson
 Davidson routine will perform the subspace rotation
 perform sub-space diagonalisation
    after iterative eigenvector-optimisation
 modified Broyden-mixing scheme, WC =      100.0
 initial mixing is a Kerker type mixing with AMIX =  0.4000 and BMIX =      1.0000
 Hartree-type preconditioning will be used
 using additional bands           141
 reciprocal scheme for non local part
 use partial core corrections
 calculate Harris-corrections to forces 
   (improved forces if not selfconsistent)
 use gradient corrections 
 use of overlap-Matrix (Vanderbilt PP)
 Methfessel and Paxton  Order N= 1 SIGMA  =   0.20


--------------------------------------------------------------------------------------------------------


  energy-cutoff  :      520.00
  volume of cell :     1718.39
      direct lattice vectors                 reciprocal lattice vectors
    -7.542928046  7.540699198  7.540388523     0.000002930  0.066329719  0.066289639
     7.547476001 -7.553831611  7.558065225     0.066270222  0.000080482  0.066212056
     7.537725071  7.548625092 -7.553522243     0.066313004  0.066294918  0.000037688

  length of vectors
    13.061981740 13.082397179 13.071141431     0.093776052  0.093679160  0.093767969


 
 k-points in units of 2pi/SCALE and weight: KPOINTS generated by db_to_vasp         
   0.00000000  0.00000000  0.00000000       0.016
   0.00000073  0.01658243  0.01657241       0.031
   0.00000146  0.03316486  0.03314482       0.016
   0.01656756  0.00002012  0.01655301       0.031
   0.01656829  0.01660255  0.03312542       0.031
   0.01656902  0.03318498  0.04969783       0.031
   0.01656682 -0.01656231 -0.00001940       0.031
   0.03313511  0.00004024  0.03310603       0.016
   0.03313584  0.01662267  0.04967844       0.031
   0.03313658  0.03320510  0.06625085       0.016
   0.01657825  0.01657373  0.00000942       0.031
   0.01657898  0.03315616  0.01658183       0.031
   0.01657972  0.04973859  0.03315424       0.031
   0.01657752 -0.00000870 -0.01656299       0.031
   0.03314581  0.01659385  0.01656244       0.031
   0.03314654  0.03317628  0.03313485       0.031
   0.03314727  0.04975871  0.04970726       0.031
   0.03314507  0.00001142 -0.00000997       0.031
   0.04971336  0.01661397  0.03311545       0.031
   0.04971409  0.03319640  0.04968786       0.031
   0.04971483  0.04977883  0.06626027       0.031
   0.04971263  0.00003154  0.01654304       0.031
   0.00001070  0.01655361 -0.01654359       0.031
   0.00001143  0.03313604  0.00002882       0.031
   0.00001216  0.04971847  0.01660123       0.031
   0.00000996 -0.00002882 -0.03311600       0.031
   0.03315650  0.03314746  0.00001884       0.016
   0.03315723  0.04972989  0.01659125       0.031
   0.03315797  0.06631232  0.03316366       0.016
   0.04972406  0.03316758  0.01657186       0.031
   0.04972479  0.04975001  0.03314427       0.031
   0.04972552  0.06633244  0.04971668       0.031
   0.04972332  0.01658515 -0.00000055       0.031
   0.06629161  0.03318770  0.03312487       0.016
   0.06629235  0.04977013  0.04969728       0.031
   0.06629308  0.06635256  0.06626969       0.016
 
 k-points in reciprocal lattice and weights: KPOINTS generated by db_to_vasp         
   0.00000000  0.00000000  0.00000000       0.016
   0.25000000  0.00000000  0.00000000       0.031
   0.50000000  0.00000000  0.00000000       0.016
   0.00000000  0.25000000  0.00000000       0.031
   0.25000000  0.25000000  0.00000000       0.031
   0.50000000  0.25000000  0.00000000       0.031
  -0.25000000  0.25000000  0.00000000       0.031
   0.00000000  0.50000000  0.00000000       0.016
   0.25000000  0.50000000  0.00000000       0.031
   0.50000000  0.50000000  0.00000000       0.016
   0.00000000  0.00000000  0.25000000       0.031
   0.25000000  0.00000000  0.25000000       0.031
   0.50000000  0.00000000  0.25000000       0.031
  -0.25000000  0.00000000  0.25000000       0.031
   0.00000000  0.25000000  0.25000000       0.031
   0.25000000  0.25000000  0.25000000       0.031
   0.50000000  0.25000000  0.25000000       0.031
  -0.25000000  0.25000000  0.25000000       0.031
   0.00000000  0.50000000  0.25000000       0.031
   0.25000000  0.50000000  0.25000000       0.031
   0.50000000  0.50000000  0.25000000       0.031
  -0.25000000  0.50000000  0.25000000       0.031
   0.00000000 -0.25000000  0.25000000       0.031
   0.25000000 -0.25000000  0.25000000       0.031
   0.50000000 -0.25000000  0.25000000       0.031
  -0.25000000 -0.25000000  0.25000000       0.031
   0.00000000  0.00000000  0.50000000       0.016
   0.25000000  0.00000000  0.50000000       0.031
   0.50000000  0.00000000  0.50000000       0.016
   0.00000000  0.25000000  0.50000000       0.031
   0.25000000  0.25000000  0.50000000       0.031
   0.50000000  0.25000000  0.50000000       0.031
  -0.25000000  0.25000000  0.50000000       0.031
   0.00000000  0.50000000  0.50000000       0.016
   0.25000000  0.50000000  0.50000000       0.031
   0.50000000  0.50000000  0.50000000       0.016
 
 position of ions in fractional coordinates (direct lattice) 
   0.00239624  0.40123516  0.00747599
   0.40124972  0.00503214  0.79914268
   0.40276514  0.19774726  0.80119342
   0.39891805  0.60480454  0.59801230
   0.60091919  0.39890106  0.39693329
   0.79245907  0.99675288  0.19420971
   0.99905863  0.20140854  0.24417887
   0.20030419  0.80223909  0.00234286
   0.39965186  0.40066701  0.60055926
   0.80355870  0.20444786  0.80551626
   0.79212630  0.58814804  0.79969068
   0.00949927  0.01364402  0.01368508
   0.99632394  0.99165297  0.19337038
   0.00271775  0.01744467  0.40034580
   0.00157381  0.00340158  0.59812712
   0.00396006  0.00628398  0.80222377
   0.99965411  0.20500707  0.00595976
   0.19538771  0.19384864  0.40022122
   0.99866216  0.19607220  0.59254306
   0.00289237  0.19785422  0.79999561
   0.99934468  0.40053439  0.20069627
   0.99914661  0.40438385  0.40064682
   0.99239012  0.39596086  0.59396331
   0.99876032  0.39346664  0.80205329
   0.99969956  0.59468859  0.00090000
   0.99790469  0.60067357  0.20036734
   0.00176237  0.60301907  0.39848382
   0.00069059  0.60034192  0.59554080
   0.98997780  0.59138289  0.79347059
   0.00352235  0.80377670  0.01096132
   0.00140449  0.79959450  0.20345710
   0.00459418  0.80567747  0.40150207
   0.00274962  0.80510037  0.59946925
   0.01414123  0.80107356  0.79975095
   0.20262673  0.00746061  0.00266128
   0.20428015  0.00174612  0.20303363
   0.20073730  0.00019046  0.40179490
   0.20334993  0.00359080  0.60103312
   0.20362659  0.00356478  0.79956029
   0.19928717  0.20111389  0.00177991
   0.19917198  0.19962385  0.20323025
   0.20611684  0.19675156  0.60424555
   0.20262132  0.19808126  0.80014652
   0.19573977  0.39598870  0.00104485
   0.19786698  0.39920064  0.19998596
   0.20905549  0.41246698  0.40235692
   0.19794287  0.38613451  0.79812646
   0.20160037  0.59407530  0.01184018
   0.19603356  0.59569737  0.19834439
   0.19820600  0.60317862  0.39729990
   0.20399216  0.60261041  0.59114130
   0.20025387  0.80010344  0.20490917
   0.20131557  0.80377115  0.40241391
   0.20326153  0.80660264  0.60031017
   0.19970778  0.80925962  0.79364978
   0.40079953  0.00336384  0.99794613
   0.40476515  0.00321665  0.20265356
   0.40145835  0.99876823  0.40165994
   0.40117577  0.99978767  0.60232981
   0.40156898  0.20142629  0.99848904
   0.40434377  0.20085738  0.19893134
   0.39884243  0.19587817  0.39962243
   0.40251952  0.19587931  0.60268733
   0.39961697  0.39865073  0.00128224
   0.39864558  0.39931620  0.19592058
   0.39924735  0.39447414  0.80340419
   0.40076397  0.59706526  0.00292105
   0.39971606  0.59935273  0.20018229
   0.40084342  0.60350500  0.40017559
   0.40577434  0.59745174  0.79389789
   0.41684057  0.81328695  0.01272196
   0.40111434  0.80037180  0.20197204
   0.39971036  0.80053042  0.39945107
   0.40084063  0.80005733  0.59827580
   0.39991928  0.80828931  0.79836000
   0.59652862  0.99875683  0.99551724
   0.60363911  0.99967108  0.19868048
   0.60171027  0.99798159  0.40032571
   0.59725362  0.99728414  0.59757592
   0.59651738  0.00162608  0.80001788
   0.59702095  0.19785505  0.99710453
   0.59956391  0.19925786  0.19593757
   0.60014216  0.19670038  0.60020599
   0.59352452  0.20111375  0.79981181
   0.59665009  0.39462251  0.99710518
   0.59775859  0.39755585  0.19866429
   0.59816036  0.39238129  0.59014917
   0.59884862  0.39810998  0.79924865
[...]
   -.194E+03 -.139E+03 0.142E+02   0.195E+03 0.140E+03 -.146E+02   -.397E+00 -.239E+00 0.438E+00   0.136E-02 0.427E-02 -.168E-02
   0.151E+03 0.639E+02 -.113E+03   -.152E+03 -.636E+02 0.113E+03   0.731E+00 -.308E+00 0.412E+00   -.815E-02 0.226E-02 -.404E-02
   -.524E+02 -.936E+01 -.295E+02   0.525E+02 0.939E+01 0.289E+02   -.450E-01 -.338E-01 0.584E+00   -.228E-02 0.150E-02 -.418E-02
   -.940E+02 -.117E+03 0.675E+02   0.933E+02 0.116E+03 -.672E+02   0.734E+00 0.645E+00 -.349E+00   -.301E-02 0.111E-02 -.290E-02
   0.347E+02 0.824E+02 0.112E+03   -.340E+02 -.819E+02 -.112E+03   -.734E+00 -.459E+00 -.281E+00   0.101E-02 0.275E-02 0.722E-02
   -.574E+02 -.583E+01 0.122E+03   0.570E+02 0.581E+01 -.122E+03   0.400E+00 0.176E-01 -.438E+00   0.220E-02 0.230E-02 -.223E-02
   0.284E+02 -.959E+02 0.741E+01   -.284E+02 0.958E+02 -.740E+01   -.713E-01 0.794E-01 -.406E-02   0.654E-02 0.556E-03 -.556E-02
   -.500E+02 -.561E+02 -.231E+02   0.500E+02 0.560E+02 0.233E+02   -.703E-01 0.773E-01 -.187E+00   0.122E-02 0.150E-02 0.101E-02
   0.335E+01 -.193E+02 -.607E+02   -.334E+01 0.194E+02 0.607E+02   -.496E-02 -.103E-01 0.131E-01   -.651E-02 0.490E-02 -.819E-02
   -.617E+02 0.137E+02 0.350E+02   0.619E+02 -.140E+02 -.351E+02   -.267E+00 0.258E+00 0.104E+00   0.695E-03 -.427E-02 -.152E-02
   0.356E+02 -.810E+02 0.182E+02   -.352E+02 0.806E+02 -.183E+02   -.369E+00 0.384E+00 0.238E-01   -.102E-01 0.190E-03 -.288E-02
 -----------------------------------------------------------------------------------------------
   -.695E+00 -.490E+00 0.175E+00   -.185E-12 -.317E-11 -.657E-12   0.693E+00 0.496E+00 -.171E+00   0.411E-02 -.781E-03 -.513E-02
 
 
 POSITION                                       TOTAL-FORCE (eV/Angst)
 -----------------------------------------------------------------------------------
      3.06659     -2.95636      2.99416         0.000257     -0.000278      0.000087
      3.03510      9.02012     -2.97273        -0.000290      0.000272     -0.000255
      4.49364      7.59129     -1.52024        -0.000229      0.000378     -0.000012
      6.06339      2.95370      3.06205        -0.000332     -0.000164     -0.000222
      1.46998      4.51442      4.54784        -0.000150     -0.000326      0.000049
      3.00941     -0.08759     12.04201         0.000262     -0.000623      0.000140
     -4.17515      7.85541      7.21114         0.000732      0.000597     -0.000580
      4.56166     -4.53186      7.55605        -0.000314     -0.000101      0.000324
      4.53633      4.52048      1.50546         0.000003     -0.000370     -0.000699
      1.55364     10.59557      1.51989         0.000287     -0.000020     -0.000078
      4.49193      7.56698      4.37772         0.000721     -0.000087     -0.000045
      0.13448      0.07187      0.07138        -0.000412      0.000115      0.000266
      1.42685      1.48188     13.54702         0.000193     -0.000073      0.000122
      3.12886      2.91078     -2.87168         0.001275     -0.000361      0.000402
      4.52232      4.50121     -4.48039         0.000231      0.000660     -0.000135
      6.06450      6.03808     -5.98226         0.000509      0.000461     -0.000140
     -5.94811      6.03449      9.04222        -0.000159      0.000081     -0.000241
      3.00603      3.03018     -0.08466        -0.000174     -0.000422      0.000114
     -1.58656     10.52240      4.53644         0.000208      0.001144     -0.000246
      7.50163      4.56612     -4.52558         0.000166      0.000274     -0.000215
     -3.00217      6.02517      9.04675        -0.000764      0.000478      0.000433
     -1.46445      7.50395      7.56402        -0.000015     -0.000144      0.000711
     -0.01989      8.97590      5.98919        -0.000318     -0.000362     -0.000552
      1.48176     10.61357      4.44656         0.000520     -0.000152      0.000239
     -3.04548      3.05305     12.02602        -0.000192     -0.000132      0.000181
     -1.48324      4.50001     10.55104        -0.000252      0.000142      0.000442
      7.54164     -1.53381      1.56099        -0.000132      0.000185      0.000267
      9.01488     -0.03416      0.04420         0.000208     -0.000115     -0.000310
      2.97708      8.98753      5.94103         0.000224     -0.000729      0.000663
      6.12254     -5.96229      6.01876         0.000449      0.000004      0.000668
      7.55793     -4.49359      4.51716         0.000385     -0.000431      0.000357
      9.07259     -3.02052      3.09125         0.000417     -0.000278      0.000091
     10.57437     -1.53569      1.57763         0.000177      0.000402     -0.000138
     11.96772      0.09248      0.12026         0.000322     -0.000524     -0.000065
     -1.45203      1.49168      1.56417        -0.000050      0.000694      0.000638
      0.00272      3.05985      0.01993         0.000414     -0.000121      0.000999
      1.51591      4.54526     -1.51989        -0.000246     -0.000353      0.000090
      3.02367      6.04325     -2.97944        -0.000193      0.000055     -0.000392
      4.51783      7.54414     -4.47713        -0.000442      0.000731     -0.000361
      0.02811     -0.00298      3.00929        -0.000254      0.000296     -0.000215
      1.53621      1.52808      1.47550         0.000309     -0.000449      0.000277
      4.48489      4.62926     -1.52292        -0.000136      0.000246     -0.000418
      5.99794      6.07164     -3.01897        -0.000086      0.000833     -0.000358
      1.52014     -1.50733      4.46097        -0.000266     -0.000222      0.000152
      3.02790     -0.01382      2.99858        -0.000261     -0.000167      0.000808
      4.56905      1.49796      1.65460        -0.000154     -0.000230     -0.000114
      7.43733      4.60059     -1.61767        -0.000249      0.000088     -0.001009
      3.05236     -2.87796      5.92077        -0.000058     -0.000581      0.000630
      4.51241     -1.52434      4.48229        -0.000582     -0.000314      0.000615
      6.05216     -0.06263      3.05240        -0.000628     -0.000721      0.000638
      7.46535      1.44853      1.62755        -0.000612     -0.000253     -0.000200
      6.07281     -2.98701      6.00944        -0.000161     -0.000580      0.000294
      7.58122     -1.51582      4.55331        -0.000115     -0.000641      0.000258
      9.07960     -0.02869      3.09457        -0.000193      0.000164     -0.000115
     10.58380      1.38389      1.62746        -0.000335     -0.000172     -0.000555
      4.52443     10.53002     -4.49040        -0.000185      0.000508     -0.000026
     -1.50129      4.55767      1.54565        -0.000213      0.000381      0.000878
      7.53761     -1.48527      7.54196        -0.000365     -0.000059     -0.000016
      9.06003      0.01968      6.03177         0.000049      0.000145     -0.000584
      6.01759      9.04379     -2.99173        -0.000123     -0.000176     -0.000027
     -0.03448      3.03345      3.06437        -0.000026      0.000047      0.000206
      1.48219      4.54452      1.46933        -0.000115      0.000310      0.000112
      2.98511      6.10510     -0.03679        -0.000018     -0.000067     -0.000088
      0.00419      0.01173      6.01661        -0.000357     -0.000338      0.000119
      1.48367      1.46863      4.54411        -0.000065     -0.000049     -0.000092
      6.02163      6.09541     -0.07659        -0.000184     -0.000375     -0.000384
      1.50542     -1.46604      7.51251         0.000107     -0.000555     -0.000361
      3.01749     -0.00217      6.03188        -0.000409     -0.000181      0.000356
      4.54782      1.48464      4.56111        -0.000033     -0.000247      0.000299
      7.43271      4.53961      1.57855        -0.000472     -0.000461     -0.000625
      3.08996     -2.90413      9.19392        -0.000151     -0.000178     -0.000239
      4.53762     -1.49658      7.54822        -0.000075      0.000177      0.000055
      6.03795     -0.01767      6.04717         0.000408     -0.000382     -0.000144
      7.52454      1.49528      4.55029        -0.000335      0.000015     -0.000311
      9.10180      2.93651      3.09422        -0.000245      0.000093     -0.000144
     10.54246      4.46859      4.52707        -0.000220      0.000130     -0.000091
      4.48939     -1.49972     10.60652         0.000172      0.000196      0.000080
      6.01113      0.02064      9.05607         0.000176      0.000415      0.000306
      7.52630      1.48127      7.52726         0.000301      0.000044     -0.000490
      1.54310     10.52491     -1.53269         0.000216     -0.000007     -0.000493
      4.50592     10.53416     -1.53448        -0.000062      0.000054     -0.000035
     -1.54165      4.49503      4.54693        -0.000234     -0.000111      0.000319
      1.48195      7.57038      1.47831        -0.000136      0.000264     -0.000216
      3.06975      8.99389     -0.04596         0.000409     -0.000233     -0.000074
      5.99382      9.04502     -0.05010         0.000426      0.000331      0.000203
     -0.01083      3.00409      6.01147        -0.000265     -0.000140      0.000100
      2.89799      6.00138      3.01830        -0.000347     -0.000115     -0.000079
      4.51217      7.54171      1.48735        -0.000009     -0.000042     -0.000367
      7.53692      7.54304      1.43015         0.000273      0.000237     -0.000165
      1.50471      1.46351      7.51580         0.000140     -0.000153      0.000059
      3.01034      2.97967      6.05123        -0.000182      0.000126     -0.000017
      4.51605      4.42122      4.48426        -0.000384     -0.000241     -0.000678
      6.13673      6.01271      2.95013         0.000459      0.000005     -0.001035
      9.06628      6.00530      3.02536        -0.000238     -0.000187     -0.000377
      3.03076     -0.03003      9.01760         0.000546      0.000023     -0.000154
      4.54709      1.49341      7.54216         0.000169      0.000093     -0.000130
      6.05076      2.96686      6.08600         0.000490     -0.000126      0.000149
      7.57663      4.38785      4.48076         0.000389      0.000093     -0.000224
     -5.94562      6.05242      5.97627        -0.000118     -0.000142      0.000524
      4.51393      1.46168     10.54042         0.000596      0.000675      0.000157
     -1.48532     10.56627      1.54194         0.000263      0.000463      0.000245
      0.10102     12.06624      0.03579         0.000467     -0.000287     -0.000262
     -4.46720      4.55820      7.47869         0.000321     -0.000580     -0.000114
     -3.01570      5.92291      5.99474         0.000172      0.000208      0.000015
     -1.68124      7.60735      4.66174         0.000258      0.000498      0.000448
     -0.08513      9.06475      3.06030        -0.000230      0.000823      0.000469
     -3.03339      3.05102      9.03725         0.000473      0.000280      0.000270
     -1.53023      4.50700      7.55514        -0.000083      0.000828     -0.000075
     -0.02871      6.01003      6.04710        -0.000338      0.000021     -0.000114
      1.45729      7.55464      4.53609        -0.000075      0.000235      0.000314
      2.98753      9.07086      2.98876         0.000365     -0.000414     -0.000379
     -1.49291      1.56992     10.47556         0.000852      0.000563     -0.000170
     -0.01803      2.99969      9.03401         0.000571      0.000194      0.000229
      2.93408      5.97458      6.03337         0.000196     -0.000337      0.000270
      0.06543      0.00919     11.99894         0.000276      0.000704      0.000044
      3.04562      2.99213      9.10090         0.000282      0.000817      0.000101
      4.50696      4.42149      7.66196         0.000183      0.000079      0.000136
      5.85802      2.86476     -0.13263        -0.000844     -0.000855     -0.000913
      2.94695      3.00454      3.06263        -0.000643     -0.000452      0.001234
     -0.03883      6.04909      3.04837        -0.000784     -0.000067     -0.000013
      1.49779      4.49416      7.57742         0.000146      0.000118     -0.000590
      1.54557      1.48778     10.56681        -0.000344      0.000117      0.000141
      9.01719      3.07707      0.02785        -0.000954     -0.000334     -0.000594
      6.03917      6.04263      6.10622         0.000194     -0.000221     -0.000232
 -----------------------------------------------------------------------------------
    total drift:                                0.002860      0.004636     -0.000861


--------------------------------------------------------------------------------------------------------



  FREE ENERGIE OF THE ION-ELECTRON SYSTEM (eV)
  ---------------------------------------------------
  free  energy   TOTEN  =     -1122.80520276 eV

  energy  without entropy=    -1122.78295764  energy(sigma->0) =    -1122.79778772
 


--------------------------------------------------------------------------------------------------------


    POTLOK:  cpu time      0.1963: real time      0.0888


--------------------------------------------------------------------------------------------------------




--------------------------------------------------------------------------------------------------------


  
 reached required accuracy - stopping structural energy minimisation
     LOOP+:  cpu time   3924.1844: real time   3923.1574
    4ORBIT:  cpu time      0.0000: real time      0.0000



 total charge

# of ion       s       p       d       tot
------------------------------------------
    1        0.420   6.317   4.203  10.940
    2        0.421   6.329   4.186  10.936
    3        0.421   6.332   4.193  10.946
    4        0.413   6.307   4.231  10.951
    5        0.411   6.329   4.211  10.951
    6        0.422   6.318   4.185  10.925
    7        0.337   6.243   2.085   8.665
    8        0.357   6.282   2.105   8.744
    9        0.361   6.309   2.142   8.812
   10        0.365   6.300   2.157   8.822
   11        0.362   6.277   2.165   8.804
   12        0.354   6.213   3.101   9.668
   13        0.366   6.233   3.082   9.682
   14        0.336   6.213   3.009   9.559
   15        0.354   6.239   3.038   9.632
   16        0.350   6.226   3.036   9.612
   17        0.348   6.223   3.032   9.603
   18        0.354   6.227   3.029   9.609
   19        0.354   6.220   3.036   9.610
   20        0.358   6.233   3.065   9.656
   21        0.352   6.235   3.034   9.621
   22        0.359   6.231   3.031   9.622
   23        0.366   6.225   3.109   9.700
   24        0.348   6.225   3.029   9.603
   25        0.350   6.229   3.030   9.608
   26        0.357   6.239   3.054   9.650
   27        0.356   6.242   3.069   9.667
   28        0.347   6.232   3.027   9.606
   29        0.348   6.213   3.064   9.625
   30        0.346   6.219   3.027   9.592
   31        0.357   6.233   3.103   9.693
   32        0.346   6.239   3.027   9.612
   33        0.353   6.239   3.055   9.647
   34        0.351   6.212   3.071   9.634
   35        0.353   6.226   3.057   9.636
   36        0.354   6.233   3.057   9.644
   37        0.356   6.239   3.049   9.644
   38        0.358   6.238   3.081   9.677
   39        0.357   6.239   3.070   9.666
   40        0.355   6.237   3.054   9.647
   41        0.351   6.235   3.060   9.646
   42        0.370   6.246   3.101   9.717
   43        0.358   6.241   3.077   9.676
   44        0.357   6.236   3.067   9.660
   45        0.353   6.231   3.076   9.660
   46        0.368   6.250   3.084   9.702
   47        0.352   6.225   3.071   9.647
   48        0.356   6.219   3.092   9.667
   49        0.358   6.237   3.084   9.680
   50        0.359   6.238   3.088   9.684
   51        0.353   6.231   3.062   9.646
   52        0.353   6.233   3.046   9.632
   53        0.358   6.241   3.070   9.669
   54        0.356   6.240   3.055   9.651
   55        0.359   6.222   3.123   9.705
   56        0.353   6.236   3.039   9.627
   57        0.354   6.239   3.064   9.656
   58        0.353   6.237   3.050   9.640
   59        0.359   6.240   3.070   9.669
   60        0.357   6.244   3.054   9.655
   61        0.348   6.242   3.031   9.621
   62        0.353   6.242   3.074   9.668
   63        0.357   6.237   3.056   9.650
   64        0.359   6.239   3.072   9.670
   65        0.355   6.241   3.082   9.679
   66        0.352   6.231   3.063   9.645
   67        0.351   6.228   3.039   9.619
   68        0.358   6.242   3.046   9.646
   69        0.353   6.246   3.042   9.642
   70        0.349   6.222   3.074   9.645
   71        0.358   6.223   3.092   9.673
   72        0.354   6.231   3.061   9.645
   73        0.357   6.240   3.058   9.655
   74        0.358   6.244   3.052   9.654
   75        0.353   6.235   3.048   9.635
   76        0.363   6.243   3.079   9.684
   77        0.357   6.244   3.073   9.674
   78        0.355   6.237   3.077   9.669
   79        0.355   6.231   3.064   9.650
   80        0.354   6.238   3.046   9.638
   81        0.359   6.244   3.069   9.671
   82        0.357   6.241   3.098   9.696
   83        0.352   6.236   3.060   9.648
   84        0.359   6.240   3.064   9.663
   85        0.357   6.244   3.034   9.635
   86        0.354   6.245   3.052   9.652
   87        0.347   6.229   3.046   9.623
   88        0.353   6.233   3.039   9.625
   89        0.354   6.240   3.066   9.660
   90        0.349   6.242   3.052   9.643
   91        0.350   6.243   3.045   9.638
   92        0.347   6.228   3.053   9.629
   93        0.354   6.223   3.098   9.674
   94        0.354   6.237   3.061   9.652
   95        0.358   6.244   3.071   9.673
   96        0.356   6.241   3.050   9.647
   97        0.353   6.230   3.059   9.642
   98        0.354   6.231   3.050   9.635
   99        0.348   6.228   3.022   9.598
  100        0.363   6.235   3.070   9.668
  101        0.355   6.233   3.062   9.650
  102        0.352   6.218   3.076   9.646
  103        0.358   6.230   3.086   9.675
  104        0.373   6.238   3.111   9.722
  105        0.337   6.213   3.026   9.575
  106        0.350   6.234   3.040   9.624
  107        0.355   6.236   3.053   9.643
  108        0.355   6.240   3.053   9.648
  109        0.350   6.246   3.044   9.640
  110        0.356   6.231   3.106   9.693
  111        0.356   6.226   3.083   9.664
  112        0.351   6.230   3.055   9.636
  113        0.355   6.247   3.085   9.687
  114        0.345   6.231   3.015   9.591
  115        0.355   6.227   3.113   9.695
  116        0.354   6.244   3.100   9.698
  117        0.350   6.222   3.077   9.650
  118        2.427   6.233   3.367  12.027
  119        2.449   6.268   3.463  12.179
  120        2.441   6.274   3.409  12.125
  121        2.446   6.272   3.454  12.171
  122        2.445   6.275   3.434  12.154
  123        2.256   5.972   1.886  10.114
  124        2.262   5.967   1.907  10.136
--------------------------------------------------
tot         58.584 773.390 381.3151213.289
 

 total amount of memory used by VASP MPI-rank0  7396245. kBytes
=======================================================================

   base      :      30000. kBytes
   nonl-proj :    1292066. kBytes
   fftplans  :      67629. kBytes
   grid      :     189621. kBytes
   one-center:       1928. kBytes
   wavefun   :    5815001. kBytes
 
  
  
 General timing and accounting informations for this job:
 ========================================================
  
                  Total CPU time used (sec):     4038.924
                            User time (sec):     3311.409
                          System time (sec):      727.515
                         Elapsed time (sec):     4038.474
  
                   Maximum memory used (kb):     9727648.
                   Average memory used (kb):          N/A
  
                          Minor page faults:      1078399
                          Major page faults:           11
                 Voluntary context switches:       738778
