124
Lattice="-7.334698984912011 7.327326602869729 7.330561733762222 7.332652321213073 -7.332808832545034 7.3339977034273796 7.33118444310953 7.329295232443135 -7.3360444405480525" Properties=species:S:1:pos:R:3:energies:R:1:forces:R:3 energy=-1116.279611021078 free_energy=-1116.279611021078 stress="-0.016420718806483988 4.743215844936489e-05 0.0007714089116285793 4.743215844936489e-05 -0.00962919878445124 -7.421078279263622e-06 0.0007714089116285793 -7.421078279263622e-06 -0.017011409212414154" pbc="T T T"
Cr       2.88333048      -2.90950061       2.88240984      -7.31891741      -0.01211622       0.03391658      -0.01268235
Cr       2.92841747       8.78154996      -2.92560357      -7.45464523      -0.00445572       0.00803215       0.01064091
Cr       4.37697459       7.34399637      -1.47835879      -7.39728919      -0.01668483       0.00234398       0.01517959
Cr       5.89893879       2.91206105       2.95822624      -7.72668415      -0.00184410      -0.00965941       0.01003863
Cr       1.42145219       4.39705342       4.36671513      -8.26072839       0.00358359      -0.02215589      -0.00767257
Cr      -4.39472633       7.33844098       4.34055095      -7.53703261       0.00912980      -0.00074254      -0.01842796
Ti       3.07108759       0.00393405      -0.14279848      -7.90702073       0.02949313      -0.00480759      -0.02929150
Ti       4.42610193      -4.38279839       7.34018853      -7.88691031       0.00020154      -0.01025031      -0.00275989
Ti       4.37346072       4.39496210       1.44576671      -9.14779798      -0.00685059      -0.02331865       0.00283810
Ti       1.46634172      10.19968121       1.45531433      -7.92284092       0.00097473       0.02582046       0.00193390
Ti       4.37209824       7.33143203       4.36684711      -7.95860248      -0.01389923       0.00078610      -0.01510755
V       -0.15179568      -0.00972561      -0.14846384      -8.62987512      -0.03606136      -0.00087878      -0.03248895
V        1.46616934       1.46957299      -1.52213887      -9.19751089      -0.00030414      -0.01198328      -0.01722569
V        2.93466009       2.94021796      -2.94984767      -9.54697525       0.00384273      -0.01108009      -0.00204513
V        4.38779102       4.39190981      -4.40440866      -9.09434336      -0.00245191       0.01263962       0.00919830
V        5.81075214       5.86504096      -5.84352591      -8.86415329      -0.01895434       0.00510877       0.00045716
V        1.44411454      -0.00673574       1.47281494      -8.22512832      -0.00924857       0.01219656      -0.02009917
V        4.43695637       1.48652117      -1.52209261      -9.51892864       0.00544709      -0.01082776      -0.00652930
V        5.87117563       2.93708549      -2.96783602      -9.27474512       0.00205647       0.01357435      -0.00040342
V        7.34711517       4.42716547      -4.43146842      -8.89789713      -0.00535821       0.02683480       0.00478499
V        4.45714112      -1.47982571       1.47095232      -8.92589431       0.01357339       0.00281550      -0.00133595
V        5.90884203      -0.01750314      -0.00232777      -9.35707679       0.01151215      -0.00234071      -0.00738506
V        7.34032938       1.47246908      -1.47919063      -9.46764805       0.00257924       0.00492311      -0.00834798
V        8.79013839       2.93825043      -2.96521970      -9.12014262      -0.00094324       0.02274551      -0.00317811
V        4.40201184      -4.38717645       4.38831020      -9.06142585      -0.00785914       0.01803389      -0.00834844
V        5.88705709      -2.93215308       2.93653886      -9.16796395       0.00156185       0.01015941       0.00340826
V        7.35149154      -1.47677696       1.47555117      -9.36145586       0.00134016       0.00314183       0.00097912
V        8.79357456      -0.02241810      -0.00024221      -9.34072473      -0.00240646      -0.00039666      -0.00186524
V       10.24129313       1.48366425      -1.46514966      -9.04661039      -0.00559956       0.00889535      -0.00930965
V        5.84534443      -5.82571657       5.83064340      -8.97182587      -0.01119756      -0.00875032      -0.01151989
V        7.33709633      -4.39229752       4.38866221      -9.40942540      -0.00481778      -0.00844814      -0.00360269
V        8.79340837      -2.91527062       2.95412626      -9.48693805      -0.00065780      -0.00438625       0.00386723
V       10.23911472      -1.48344848       1.47941335      -9.41734556      -0.00204487       0.00437053       0.00359610
V       11.68702197      -0.00262972      -0.00214487      -9.04919598      -0.01275041       0.00318659      -0.01047649
V       -1.50532162       1.46203732       1.47132271      -8.87805014      -0.01474807      -0.01098205       0.00124490
V        0.04560443       2.89652191       0.03716615      -8.95739098       0.00464267      -0.03357441       0.00419082
V        1.46276385       4.38793430      -1.45293470      -9.06055873       0.00015554      -0.02215808       0.00613686
V        2.92720700       5.85399076      -2.92833902      -9.15590460      -0.00570497      -0.00570505       0.01148860
V        4.33764881       7.32953748      -4.39399732      -9.18247429      -0.01236040       0.00126684       0.01258894
V       -0.14727477      -0.00942073       3.07686206      -8.63896166      -0.01959905      -0.00643093       0.02180348
V        2.87871725       2.89994733      -0.00680204      -9.41593213      -0.00196023      -0.02704745      -0.00550066
V        4.39433538       4.38370895      -1.47292541      -9.47178455      -0.00572861      -0.01304383       0.00477441
V        5.83309521       5.85028822      -2.90678478      -9.12952761      -0.00462275       0.00969940       0.00780401
V        1.47197729      -1.46188481       4.44516818      -8.94615822      -0.00011838       0.00248378       0.01873925
V        3.08153101      -0.02535985       3.07024597      -8.94551709       0.02252468      -0.00688736       0.02425545
V        4.43047860       1.42606319       1.44231859      -9.76271258       0.01852519      -0.01346537      -0.00300725
V        7.34129120       4.38948125      -1.47329025      -9.48486688      -0.00556040       0.01016872       0.00539955
V        2.93965005      -2.93024807       5.87292477      -9.08356680       0.00363496       0.01062153       0.00220498
V        4.42784753      -1.49134229       4.43151503      -9.02898486       0.00495748       0.00712069       0.00723544
V        5.91318580      -0.01705512       2.93865060      -9.24984405       0.00972778      -0.00106938       0.00899884
V        7.37297984       1.44606404       1.44153550      -9.53150580      -0.00034547      -0.00586459       0.00077052
V        5.88548429      -2.93346340       5.87388707      -8.96312391       0.00641112      -0.01406856       0.00608762
V        7.34290346      -1.47847020       4.41331854      -8.98403101       0.00243131      -0.00617560       0.01105410
V        8.79104052      -0.01023334       2.93934831      -9.22409449      -0.00109052       0.00166896       0.00619442
V       10.24801401       1.46613841       1.46130032      -9.10029867      -0.00179042      -0.00369546       0.00525759
V       -2.94227229       2.93946660       2.93450811      -9.14733989       0.00092203      -0.01133278       0.00727766
V       -1.44928008       4.39351864       1.47271703      -9.40317352       0.01040894      -0.02152348       0.00314292
V       -0.00076588       5.86568497      -0.01430128      -9.21750173       0.00818565      -0.01129993       0.00674394
V        1.46325664       7.32631059      -1.47256707      -9.15347880      -0.00254752       0.00283241       0.01099600
V       -1.49215086       1.48349078       4.43295218      -9.16650174      -0.00454074      -0.01137369       0.00575816
V       -0.01821749       2.86800491       2.87983367      -9.45555725      -0.00303318      -0.02811867       0.00259180
V        1.45620283       4.46454610       1.46757130      -9.71620998      -0.00175477      -0.01525566      -0.00332403
V        2.92674763       5.86433566      -0.01487811      -9.25509271      -0.00627421      -0.01126042       0.00672496
V        0.00539495      -0.00131384       5.91389017      -9.04790649      -0.00937134      -0.00429691       0.01286560
V        1.45797421       1.44630766       4.44572149      -9.44991565      -0.00324696      -0.01437584       0.02165066
V        5.87281157       5.88631237      -0.01081029      -9.33914269      -0.00937256      -0.00605207       0.00669637
V        1.47227990      -1.45261895       7.34794528      -9.07606748       0.00176543       0.00401540       0.00074051
V        2.94069473      -0.00517535       5.91515526      -9.04837540       0.01222752      -0.00450490       0.01181418
V        4.41557471       1.45364338       4.46095349      -9.44123620       0.00560609      -0.01558035       0.00756239
V        7.35478131       4.40549072       1.44225879      -9.47119624      -0.00328187      -0.00725507       0.00134745
V        2.94297617      -2.92535564       8.79656642      -9.05716612       0.00704210      -0.00696682      -0.00055738
V        4.41721918      -1.46562898       7.34146154      -9.00449457       0.01321213      -0.00806982       0.00359925
V        5.88591670      -0.00430330       5.88620403      -8.96936753       0.01210056      -0.00145063       0.01178269
V        7.34474551       1.44009112       4.42728680      -9.12289751       0.00315244       0.00559560       0.01060041
V        8.80536416       2.92861890       2.95580614      -9.24170150       0.00171979       0.00716332       0.00449676
V       -4.39169906       4.39789786       4.38959716      -9.17115949       0.00851587       0.00941705      -0.00442244
V       -2.93766498       5.85976678       2.90803076      -9.38372497       0.01455077      -0.00595216      -0.00643703
V       -1.46891271       7.32648154       1.46211984      -9.42519866       0.01507303       0.00126517       0.00009711
V       -0.00015161       8.79133343       0.01151046      -9.03023758       0.00724087       0.01597675       0.00710973
V        1.46644544      10.26469071      -1.44777913      -9.13519592       0.00298511       0.02411340       0.00596047
V       -2.94821300       2.93557558       5.87379191      -9.17587966      -0.00122275       0.01059644       0.00143227
V       -1.45889936       4.39518305       4.39374079      -9.64958818       0.00756018      -0.01311161      -0.00335314
V        1.46035152       7.32868555       1.46861181      -9.48629845       0.00243588       0.00208805       0.00217928
V        2.92863465       8.79801110       0.00268750      -9.19451438      -0.00561622       0.01592873       0.00646797
V       -1.46854362       1.46612475       7.34091332      -9.22638691      -0.00975515       0.00696078       0.00350290
V       -0.02111540       2.91762288       5.89729475      -9.57824155      -0.00415533      -0.00915634       0.00254340
V        2.93581260       5.89318786       2.89987476      -9.59005812      -0.00413302      -0.01339465      -0.00531332
V        4.39633732       7.34136178       1.46169692      -9.04335062      -0.00986405       0.00095145       0.00115062
V        0.00276054       0.00497783       8.79705427      -9.49742652      -0.00095528       0.00032129      -0.00143434
V        1.46282411       1.46269252       7.33592643      -9.55540665       0.00150877      -0.00458240       0.00055882
V        2.93729458       2.90950519       5.90602538      -9.72106169       0.00615091      -0.01132759       0.00167377
V        4.37275716       4.40748800       4.42240835      -9.67635618      -0.00744868      -0.01352133      -0.00435212
V        5.87438591       5.86011414       2.90364866      -9.24737715      -0.00656000      -0.00610903      -0.00281169
V        1.46937323      -1.48208790      10.23626441      -9.35356713       0.00484669       0.00474381      -0.00227296
V        2.93675647       0.00399590       8.79476890      -9.48346650       0.00758283      -0.00005845      -0.00206736
V        4.40106670       1.45607264       7.34935662      -9.06229423       0.01227164       0.00579206       0.00392173
V        5.86982754       2.91097908       5.88310001      -9.13736820       0.00825512       0.01675755       0.00656062
V        7.34948585       4.41334048       4.42380731      -9.15413207      -0.00439685       0.00975169      -0.00431654
V       -5.85858901       5.86030795       5.81850269      -9.00059238       0.00175699       0.00681283      -0.01667474
V       -2.91927080       8.79908491       2.91416577      -9.37596930       0.01231649       0.00730766      -0.00473258
V       -1.45806742      10.26250526       1.46678317      -8.91986919       0.00825561       0.02592400       0.00286324
V        0.03112506      11.76461573       0.04019090      -8.91452350       0.00729223       0.03413825       0.00787649
V       -4.41815506       4.42180300       7.36127738      -8.95646756       0.00117838       0.02589359      -0.00567119
V       -2.90934717       5.84842404       5.83246310      -9.09649529       0.00640717       0.00848948      -0.00699730
V       -1.44555436       7.32564293       4.37622707      -9.61424760       0.01276122       0.00055818      -0.01018076
V       -0.01190102       8.80613264       2.92436431      -9.24768559       0.00591226       0.01441557      -0.00167490
V       -2.93780867       2.94354525       8.80296144      -9.08948094      -0.00563350       0.02208591      -0.00125352
V       -1.46359234       4.38962284       7.33472330      -9.31532696       0.00336040       0.01156562      -0.00405558
V       -0.02207646       5.87650380       5.89205799      -9.69700137       0.00592880      -0.00488436      -0.00919855
V        1.45064988       7.32307481       4.39117760      -9.57280005       0.00023541       0.00032928      -0.00874373
V        2.92524145       8.80654388       2.91827011      -9.10393630      -0.00792833       0.01730621      -0.00598569
V       -1.47019565       1.47927482      10.24299140      -9.25120536      -0.00816698       0.00817869      -0.00664671
V        0.00004560       2.92296021       8.80625598      -9.77603523      -0.00048844       0.00617176      -0.00037333
V        2.92260128       5.87517721       5.88677655      -9.50113267      -0.00187456      -0.00467097      -0.00838056
V       -0.00272792       0.00702739      11.67599750      -9.54346391      -0.01006028       0.00087387      -0.01455758
V        2.93139454       2.92861537       8.80661279      -9.83222492       0.00344078       0.00621837       0.00091024
V        4.39179502       4.38946400       7.34112343      -9.27525022      -0.00029475       0.01277323      -0.00301736
W        5.88852358       2.91882570      -0.02504596      -6.69433313       0.00142664      -0.00990161      -0.00424617
W        2.88009375       2.84372842       2.88185309      -7.24008316      -0.02316657      -0.04028583      -0.01747837
W       -0.03051906       5.88508806       2.90972177      -6.80296085       0.00813470      -0.00828526      -0.00242923
W        1.45756706       4.38711029       7.35616303      -6.84042451       0.00012551      -0.00175309      -0.00149450
W        1.45756412       1.48171965      10.23029493      -6.83466285       0.00286812      -0.00428608      -0.00476820
Zr       8.78469193       2.92886222      -0.01209002      -8.03985452      -0.00065915       0.00498169       0.00024590
Zr       5.86843438       5.82421906       5.86500766      -7.83398089      -0.00908934       0.00934214      -0.00676453
