124
Lattice="-7.334698984912011 7.327326602869729 7.330561733762222 7.332652321213073 -7.332808832545034 7.3339977034273796 7.33118444310953 7.329295232443135 -7.3360444405480525" Properties=species:S:1:pos:R:3:energies:R:1:forces:R:3 energy=-1117.9995598906428 free_energy=-1117.9995598906428 stress="-0.007616015547686821 -4.409556086104658e-05 0.0005236313655229504 -4.409556086104658e-05 -0.0051932692898844866 2.2601294645821226e-05 0.0005236313655229504 2.2601294645821226e-05 -0.008199616022589094" pbc="T T T"
Cr       2.89656726      -2.89511325       2.89405565      -7.35936104       0.06055252       0.04169318       0.05677131
Cr       2.93037284       8.78433743      -2.92250719      -7.45892268       0.00425223       0.01870902       0.01537311
Cr       4.38212155       7.34545202      -1.48422716      -7.42652165       0.00516235       0.01340575      -0.00776331
Cr       5.89776620       2.91213443       2.96073788      -7.72549880      -0.00867618      -0.00730516       0.01494577
Cr       1.41826392       4.39961879       4.36923766      -8.26180189      -0.00198129      -0.01171919      -0.00710647
Cr      -4.39550360       7.33874920       4.36164619      -7.53290996       0.00801095       0.00172466       0.05247439
Ti       2.99339007       0.07920297      -0.04917365      -8.13405010      -0.24840699       0.15538341       0.29156060
Ti       4.42544331      -4.38073428       7.33830288      -7.88479695       0.00416408       0.00235894      -0.00813850
Ti       4.37614342       4.39700464       1.44650209      -9.15029675      -0.00527679      -0.01270994       0.00651422
Ti       1.46586713      10.24052023       1.45543370      -7.98974640       0.00024161       0.20035413       0.00147996
Ti       4.37601885       7.33149014       4.37091771      -7.97264781       0.00130188       0.00804065       0.00095641
V       -0.07868312       0.04524409      -0.07968638      -8.79449031       0.22014370       0.10591491       0.20759309
V        1.46319518       1.48809305      -1.53768816      -9.13401166      -0.01090411       0.02762536      -0.04549126
V        2.93787371       2.94338399      -2.95173293      -9.54807373       0.01124434       0.00297667      -0.00128962
V        4.39715452       4.39645845      -4.40421912      -9.09870701       0.02147207       0.02539024       0.00822742
V        5.84080816       5.87890986      -5.84106378      -8.95187620       0.06470805       0.05753814       0.00837806
V        1.45365553      -1.01208853       1.47957480      -8.61013795       0.02359412      -2.35432670      -0.01147719
V        4.42455388       1.48473939      -1.50879826      -9.52810120      -0.03804047      -0.01571496       0.04255786
V        5.86928624       2.94010719      -2.96637706      -9.27872071      -0.00925346       0.01588907       0.00919426
V        7.34857236       4.44593604      -4.42701361      -9.05065402      -0.03928245       0.04583184       0.04854857
V        4.42264065      -1.46323213       1.47490017      -9.03007650      -0.07452953       0.06081653       0.01171444
V        5.88917040      -0.01659477      -0.00311716      -9.34821505      -0.05698564       0.00241046      -0.01095854
V        7.34089585       1.47530094      -1.48349873      -9.46624778      -0.00005751       0.01557803      -0.01702427
V        8.79050000       2.94523884      -2.96679407      -9.11887481       0.00160916       0.03339523       0.00415700
V        4.40469215      -4.38481946       4.39119816      -9.05969257       0.00536882       0.02081312       0.00611092
V        5.87855750      -2.92824751       2.93700915      -9.17438895      -0.01562004       0.02294837       0.00708987
V        7.34467109      -1.47522155       1.47580611      -9.35751324      -0.01743136       0.01318482       0.00165641
V        8.79284696      -0.02275621      -0.00019941      -9.33862694      -0.00366710       0.00385190      -0.00207889
V       10.24148431       1.48552545      -1.46659184      -9.04407546      -0.00112730       0.01624993      -0.01046771
V        5.85884130      -5.82743764       5.84328009      -8.98321713       0.03207652      -0.01026467       0.03206957
V        7.33407226      -4.38917370       4.38819967      -9.40640020      -0.01156270       0.00513581       0.00098877
V        8.79321997      -2.91185260       2.95071733      -9.48782688      -0.00024264       0.00967803      -0.00227374
V       10.24708546      -1.48098474       1.47944912      -9.41321886       0.01899709       0.01613564       0.00275092
V       11.70457711      -0.00249033      -0.00291628      -9.04242058       0.04608964       0.00757787      -0.01090915
V       -1.51897735       1.47912420       1.46633168      -8.78588642      -0.04934388       0.02877502      -0.01111160
V        0.04347585       2.91566456       0.03610791      -8.89611651       0.00502193      -0.01971340       0.01196515
V        1.46163398       4.39276231      -1.45650650      -9.05918688      -0.00357799      -0.00463590       0.00168784
V        2.93258227       5.85679661      -2.93130141      -9.15262167       0.00872651       0.00726872       0.00335454
V        4.35750592       7.33063839      -4.39320465      -9.17136598       0.05677907       0.00655688       0.01206555
V       -0.06360108       0.05954086       2.99621732      -8.83968696       0.25994681       0.13938939      -0.25021467
V        2.88136080       2.91718148      -0.00985550      -9.34658403      -0.00089451      -0.00687721      -0.00314581
V        4.40091194       4.39198084      -1.48000398      -9.47293926       0.00631482       0.01204437      -0.00983279
V        5.84907710       5.86456116      -2.92264653      -9.15347123       0.03995506       0.05806207      -0.03951561
V        1.47228221      -1.44371722       4.41044786      -9.04542186      -0.00007559       0.06816994      -0.07290112
V        3.01346561       0.03317246       2.99785034      -9.14505731      -0.21899482       0.11656237      -0.22790885
V        4.45587901       1.44585012       1.44382030      -9.67543929       0.07955152       0.04112921       0.00577566
V        7.33967662       4.39495078      -1.48173013      -9.49269205      -0.00895958       0.02577792      -0.01527769
V        2.94026342      -2.92572707       5.86417523      -9.09127946       0.00640784       0.02577104      -0.01631943
V        4.41099032      -1.47740946       4.41487918      -9.05295823      -0.04322086       0.05417565      -0.04301077
V        5.89577957      -0.01589475       2.94021708      -9.24640041      -0.05240373       0.00615550       0.01334772
V        7.37154657       1.44384773       1.44129839      -9.53519110      -0.00594807      -0.00640690       0.00025574
V        5.87962196      -2.92682277       5.86953588      -8.96833719      -0.00239358       0.00493269      -0.00004186
V        7.33730871      -1.47588406       4.41076942      -8.98118399      -0.01156330       0.00507947       0.00442842
V        8.79155813      -0.00989978       2.93973708      -9.21964714      -0.00015885       0.00659291       0.00628679
V       10.25010200       1.46359266       1.46233041      -9.10606517       0.00643603      -0.00435402       0.00677075
V       -2.94399441       2.94282560       2.93784141      -9.14920770       0.00212409       0.00433721       0.01460853
V       -1.45234277       4.39820734       1.47210934      -9.40147805       0.00646607      -0.00777409       0.00159368
V       -0.00066666       5.86892071      -0.01400112      -9.22109628       0.00658307       0.00149056       0.00575025
V        1.46361358       7.33030058      -1.47142575      -9.15405979      -0.00039004       0.01746144       0.01505687
V       -1.47825121       1.47960471       4.41896416      -9.17951430       0.04307894      -0.01700737      -0.04096103
V       -0.02175633       2.88680263       2.88198751      -9.39630377       0.00654499      -0.02414684      -0.00385819
V        1.45791302       4.46027487       1.47064793      -9.70776822       0.00227804      -0.02049280       0.00189273
V        2.92701520       5.86920589      -0.01501396      -9.25942425      -0.00464584       0.00753635       0.00376378
V        0.00427385      -0.00073068       5.89440493      -9.03796982      -0.01158775      -0.00049121      -0.05415657
V        1.45827444       1.46569543       4.46354056      -9.35228536      -0.00165715       0.04029489       0.06072876
V        5.87550501       5.88901117      -0.01638867      -9.33673563      -0.00097182       0.00806761      -0.00865097
V        1.47220853      -1.45011678       7.33955838      -9.07385800       0.00171149       0.01597648      -0.02025454
V        2.94148416      -0.00336860       5.89830239      -9.04378717       0.01429941       0.00385254      -0.04864856
V        4.40281314       1.45100582       4.44713830      -9.45491641      -0.04069879      -0.02292377      -0.04134015
V        7.35786985       4.40846549       1.44189489      -9.47078751       0.00311957       0.00666339      -0.00068803
V        2.94032973      -2.92308235       8.79620911      -9.05453700       0.00200178       0.00482381      -0.00149444
V        4.41448351      -1.46295497       7.33624860      -9.00091095       0.00512554       0.00410016      -0.01005516
V        5.87960987      -0.00340215       5.88015169      -8.97874264      -0.01066335       0.00520599      -0.00960884
V        7.34496222       1.44214585       4.43038330      -9.12004354       0.00053574       0.01360887       0.01657967
V        8.80534580       2.93046917       2.95835522      -9.24435749       0.00085228       0.01409675       0.00642765
V       -4.39262656       4.40417797       4.39931787      -9.17673863       0.00699771       0.02878050       0.02130519
V       -2.94059194       5.86250290       2.91335193      -9.38253660       0.00606608       0.00660383       0.00887612
V       -1.46810139       7.33046902       1.46223008      -9.42513740       0.01729617       0.01524206       0.00044700
V        0.00152773       8.80020493       0.01389246      -9.03498362       0.01278111       0.04525191       0.01466107
V        1.46562846      10.26924571      -1.44947251      -9.13256091      -0.00100227       0.02538028      -0.01421132
V       -2.94610297       2.93819836       5.87218983      -9.17596854       0.01126942       0.01243420      -0.01025763
V       -1.46438870       4.40049287       4.39881921      -9.64956882      -0.00140480       0.00336781       0.00264561
V        1.46010846       7.33590450       1.46889308      -9.47713924       0.00041463       0.03117131       0.00249782
V        2.92573567       8.80711385       0.00428472      -9.19498189      -0.01549598       0.04743452       0.01285237
V       -1.47115057       1.46942833       7.34053746      -9.22378191      -0.01379182       0.01835477       0.00013779
V       -0.02438357       2.92063581       5.89841616      -9.57579956      -0.01268199       0.00432670       0.00046944
V        2.93526982       5.89412588       2.89949335      -9.58989482      -0.00476224       0.00138173      -0.00602411
V        4.39510942       7.34528941       1.46103553      -9.04338828      -0.01390233       0.01567201      -0.00130607
V        0.00259689       0.00513103       8.79620830      -9.49097884      -0.00173413       0.00562936      -0.00301418
V        1.46237805       1.46074167       7.33504246      -9.55950970       0.00083448      -0.00428232      -0.00335921
V        2.93918131       2.91223494       5.90694114      -9.71800057       0.01170610       0.00079216       0.00020477
V        4.37041303       4.40643679       4.42057841      -9.67140464      -0.01361934      -0.01000165      -0.00943704
V        5.87645557       5.86157078       2.90777368      -9.24529956       0.00008735       0.00486226       0.00732668
V        1.46899816      -1.48004828      10.24341478      -9.35221698       0.00361472       0.01715953       0.01754777
V        2.93676194       0.00399740       8.79553574      -9.47959483       0.00632262       0.00464807       0.00174780
V        4.40335477       1.45813030       7.34898431      -9.05930860       0.01520810       0.01379503      -0.00081220
V        5.86710084       2.91432538       5.88096145      -9.13699522      -0.00544977       0.01899659      -0.00456922
V        7.34826190       4.41610287       4.43026394      -9.16166233      -0.00610661       0.01897729       0.00933750
V       -5.85814291       5.87551522       5.84681286      -9.09577107      -0.00018755       0.05338067       0.05796009
V       -2.91737028       8.80133646       2.91523776      -9.37495132       0.01399749       0.01634301       0.00252906
V       -1.45986626      10.26659706       1.46597273      -8.91529644      -0.01456709       0.02406589      -0.00062813
V        0.01974005      11.77376702       0.02907811      -9.05332731      -0.04940132       0.02442108      -0.04871560
V       -4.41671136       4.44196088       7.36373765      -9.11436439       0.03762580       0.04691696      -0.04027712
V       -2.92255809       5.86164000       5.84787695      -9.10734590      -0.03083089       0.05215457       0.03661417
V       -1.45226519       7.32751581       4.38225132      -9.62564098      -0.01213207       0.00926160       0.01170646
V       -0.01074004       8.81492404       2.92176497      -9.24725129       0.01089251       0.04301274      -0.01142548
V       -2.93814107       2.95059561       8.80358121      -9.08641181       0.00647438       0.03428078       0.00166995
V       -1.47172160       4.39480836       7.33300094      -9.32017172      -0.01664529       0.02632251      -0.01042780
V       -0.02829066       5.87897697       5.89511792      -9.69232282      -0.01021528       0.00634384      -0.00160534
V        1.44958054       7.32658374       4.39014849      -9.57185872      -0.00326006       0.01326868      -0.01265948
V        2.92241396       8.81512483       2.91570877      -9.10448115      -0.01724538       0.04060860      -0.01512884
V       -1.47178726       1.48104403      10.24298569      -9.24832892      -0.00962728       0.01535310      -0.00261073
V       -0.00202522       2.92524875       8.80644858      -9.77830954      -0.00319655       0.01442533      -0.00021887
V        2.92638409       5.87678769       5.88945618      -9.49871412       0.00565459       0.00448656      -0.00068461
V       -0.00357587       0.00736890      11.69307580      -9.53270505      -0.01186632       0.00398635       0.04320786
V        2.93337289       2.93096052       8.80692426      -9.83293353       0.00449842       0.01503215       0.00119687
V        4.39929043       4.39367195       7.34144948      -9.28011521       0.01507577       0.02383710      -0.00131739
W        5.89089607       2.92399138      -0.03154287      -6.69029057      -0.00116253       0.00741530      -0.02158384
W        2.88071598       2.84825077       2.87801581      -7.21111045      -0.03455941      -0.06123430      -0.03299123
W       -0.03271436       5.89054266       2.91114931      -6.81577425      -0.00067813       0.00889900      -0.00028182
W        1.45719709       4.39016383       7.35946518      -6.85112706       0.00003687       0.01139129       0.00429388
W        1.45823450       1.48012946      10.23151248      -6.85212843       0.00392389      -0.00271057       0.00058285
Zr       8.78570292       2.93107400      -0.01483982      -8.05191972       0.00196224       0.01383177      -0.00406690
Zr       5.88112351       5.84085648       5.88001521      -7.85201887       0.03113131       0.07122124       0.03831840
