124
Lattice="-7.334698984912011 7.327326602869729 7.330561733762222 7.332652321213073 -7.332808832545034 7.3339977034273796 7.33118444310953 7.329295232443135 -7.3360444405480525" Properties=species:S:1:pos:R:3:energies:R:1:forces:R:3 energy=-1118.1914922362573 free_energy=-1118.1914922362573 stress="-0.00835458973364416 8.049259631948617e-05 0.00047211436415800593 8.049259631948617e-05 -0.005702051705733412 -0.0001340265135715448 0.00047211436415800593 -0.0001340265135715448 -0.008384361461937271" pbc="T T T"
Cr       2.88710835      -2.92767818       2.88429873      -7.34579487      -0.02148693       0.04513369      -0.03002886
Cr       2.93516515       8.77768656      -2.93023755      -7.46046938       0.01320686      -0.01052758      -0.00030910
Cr       4.38340098       7.34298124      -1.48503735      -7.42718153       0.00492627      -0.01020212      -0.00660209
Cr       5.89450899       2.90628608       2.95686579      -7.74304724      -0.01158492      -0.03004909       0.00521211
Cr       1.42177949       4.39285492       4.36894511      -8.24626016       0.00121422      -0.02307747       0.01730755
Cr      -4.39643670       7.34033063       4.36422452      -7.53077870       0.01172906      -0.00388217       0.06306735
Ti       2.98950607      -0.05739720      -0.04932726      -8.11812005      -0.24354295      -0.14214666       0.27702154
Ti       4.43166241      -4.38563037       7.34016672      -7.89776146       0.01204182      -0.02244948      -0.00550595
Ti       4.36898234       4.38611922       1.44887388      -9.14564312      -0.00398042      -0.03827123       0.00975772
Ti       1.46731199      10.19244599       1.45646644      -7.91714191       0.00300705       0.00602876       0.00380137
Ti       4.37691411       7.33058112       4.37194552      -7.96771313       0.00387792      -0.00709271       0.00291023
V       -0.07890201      -0.07360681      -0.07899617      -8.79271387       0.22953622      -0.13241647       0.21594527
V        1.46633692       1.45931130      -1.48699403      -9.29219677      -0.00734543      -0.03869581       0.06406746
V        2.93401490       2.93515108      -2.94142223      -9.56187094       0.00383146      -0.03115906       0.01578209
V        4.38676514       4.38793392      -4.40071426      -9.09437162       0.00074674      -0.00263379       0.01815280
V        5.79794155       5.84839043      -5.84181574      -8.76960593      -0.04733986      -0.02051832       0.00982097
V        1.44344834       1.02799368       1.46510194      -8.85796122      -0.02254895       2.38739581      -0.03530446
V        4.42321083       1.47346532      -1.50496313      -9.53727564      -0.03551961      -0.05896820       0.04276547
V        5.86390328       2.92936216      -2.96133212      -9.27883519      -0.00682964      -0.00523559       0.00804323
V        7.34559898       4.40498101      -4.42816179      -8.83829377       0.00642268       0.02058451       0.00086734
V        4.47459083      -1.49416803       1.47308787      -8.85061953       0.04790614      -0.02137565       0.00551468
V        5.89072293      -0.01679310      -0.00203028      -9.35335313      -0.05981852      -0.00870527      -0.01265557
V        7.33463562       1.46842115      -1.47709056      -9.46317597      -0.01179574      -0.01097829      -0.00243528
V        8.79003227       2.93238280      -2.96090615      -9.11785060      -0.00091461       0.01268333      -0.00055264
V        4.40675637      -4.39287662       4.39322783      -9.06154568      -0.00322622       0.00369291      -0.00287187
V        5.88851576      -2.93543212       2.93941688      -9.16782447      -0.00407159      -0.00065392       0.01065527
V        7.35081062      -1.47550295       1.47495575      -9.36674834      -0.00668963       0.00177953      -0.00016798
V        8.79330990      -0.02273225       0.00016375      -9.33537798      -0.00487580      -0.00523539      -0.00201824
V       10.24574387       1.48091569      -1.46276580      -9.04524920       0.00662729      -0.00403128      -0.00436625
V        5.85733014      -5.83546897       5.84249011      -8.98629170       0.02635375      -0.04616352       0.02282024
V        7.33788733      -4.39616734       4.39711750      -9.42243520      -0.00666817      -0.02383018       0.01647729
V        8.79353641      -2.91706912       2.95587798      -9.49026032      -0.00143233      -0.01288506       0.00398275
V       10.24125848      -1.48208519       1.47898784      -9.42286776       0.00974624       0.00161323       0.00109376
V       11.70569859      -0.00129273      -0.00170591      -9.04142339       0.05404493      -0.00254688      -0.01376459
V       -1.47429212       1.45146493       1.47371903      -8.96291720       0.06334240      -0.05062530       0.00389037
V        0.02384846       2.89015919       0.01627013      -9.07906777      -0.09029358      -0.03084159      -0.09086045
V        1.46229496       4.38474783      -1.45712560      -9.05959366      -0.00136345      -0.02128359      -0.02294727
V        2.92874252       5.85114005      -2.92729640      -9.15213089       0.00082647      -0.01782824       0.01267494
V        4.35788774       7.32983874      -4.39363354      -9.16982574       0.05771550      -0.00526804       0.01867590
V       -0.06164782      -0.06559281       2.99312689      -8.83832141       0.24179076      -0.12890952      -0.24324604
V        2.88992821       2.87699676      -0.01838106      -9.55375853       0.06675699      -0.06006003      -0.07466460
V        4.39502418       4.38189427      -1.47506601      -9.47250786       0.00055089      -0.01709220      -0.00375790
V        5.84829277       5.85364972      -2.92167065      -9.14348501       0.05033276       0.02286739      -0.04685364
V        1.47261039      -1.47537420       4.45889100      -8.85508576      -0.00089933      -0.01423757       0.04085681
V        3.00883512      -0.07842352       2.99466407      -9.09718229      -0.21165584      -0.12162882      -0.22395543
V        4.39922969       1.42595028       1.45230229      -9.87996478      -0.06759786      -0.02131464       0.02563466
V        7.33669053       4.38707384      -1.47291539      -9.48307607      -0.01547884      -0.00140686       0.00105712
V        2.94244453      -2.93265509       5.87364736      -9.08218922       0.01014336       0.00111967      -0.00623952
V        4.41530905      -1.48827990       4.41839135      -9.04342234      -0.04946179       0.02499113      -0.04725958
V        5.89623095      -0.01631394       2.93924287      -9.25076464      -0.05736231      -0.00595953       0.01513966
V        7.36675134       1.44295374       1.44084736      -9.52545111      -0.01789361      -0.02047307      -0.00214213
V        5.88417222      -2.93470930       5.87195011      -8.96458495      -0.00205414      -0.01644465      -0.00235254
V        7.34300914      -1.48044631       4.41513625      -8.98129144      -0.00194361      -0.01430370       0.01280341
V        8.79201860      -0.01138787       2.93857792      -9.21780799      -0.00080398      -0.00576336       0.00502375
V       10.25640787       1.46269542       1.46210815      -9.09602992       0.01805815      -0.01713380       0.00501080
V       -2.93423123       2.93490677       2.93494683      -9.15776267       0.01798991      -0.02811397       0.00811263
V       -1.45399685       4.38983116       1.47135271      -9.40300351      -0.01922138      -0.02365704      -0.00197364
V        0.00255804       5.85517833      -0.01199871      -9.22804825       0.02117098      -0.04887245       0.01723317
V        1.46429478       7.32110107      -1.47191154      -9.15504655       0.00078728      -0.01777368       0.01586074
V       -1.47563319       1.47018399       4.41822270      -9.18882467       0.04569474      -0.06264886      -0.04061772
V       -0.03319396       2.85003785       2.89093860      -9.56508055      -0.07587822      -0.05754235       0.07004171
V        1.45607957       4.39585330       1.46402157      -9.76870157      -0.00269435      -0.27809419      -0.01330934
V        2.92433877       5.85348363      -0.01239960      -9.25807329      -0.01626487      -0.05276240       0.02128634
V        0.00561016      -0.00140934       5.89454247      -9.03871115      -0.01328454      -0.01084816      -0.05912678
V        1.46331307       1.44175335       4.41234455      -9.55823465       0.01233088      -0.03497663      -0.07637445
V        5.86985577       5.88304231      -0.01101057      -9.33694456      -0.01568879      -0.02119425       0.00412707
V        1.47133940      -1.45032553       7.34604456      -9.08000171      -0.00004359       0.00402715      -0.01146515
V        2.94111365      -0.00499929       5.89694034      -9.04524416       0.01649805      -0.00898693      -0.05685975
V        4.39540417       1.44248323       4.44088342      -9.49107437      -0.04835626      -0.05365613      -0.04679552
V        7.35218259       4.40442287       1.44181349      -9.47091639      -0.00715144      -0.01421127       0.00091137
V        2.94473782      -2.92656752       8.79675080      -9.05805123       0.00768544      -0.01415526      -0.00096657
V        4.41878559      -1.46711145       7.34105829      -9.00293681       0.01450049      -0.01552116      -0.00202012
V        5.87935629      -0.00544130       5.87980635      -8.97950065      -0.00970119      -0.01007651      -0.01058325
V        7.34091797       1.43588528       4.42521598      -9.11822853      -0.00830873      -0.01009326       0.00557209
V        8.80588444       2.92564090       2.95215202      -9.24223217       0.00275913      -0.00568255      -0.00203498
V       -4.38814730       4.39450155       4.38859842      -9.17106519       0.01702337      -0.00021571       0.00110673
V       -2.93760115       5.85832586       2.90989621      -9.38394624       0.01445646      -0.01488111       0.00067772
V       -1.46816248       7.32070939       1.46241370      -9.42428643       0.01986823      -0.01905507       0.00025748
V       -0.00166184       8.78472212       0.01070416      -9.03615432       0.00411601      -0.00729079       0.00558384
V        1.46638610      10.25744835      -1.45330240      -9.13450899       0.00254800       0.00651537      -0.00041202
V       -2.94156155       2.92714852       5.86653103      -9.17664912       0.00944354      -0.01175129      -0.00914792
V       -1.46065524       4.39172854       4.39482141      -9.65061921       0.00016991      -0.02434507       0.00082131
V        1.46035362       7.31617543       1.46895238      -9.47756756       0.00278869      -0.03831072       0.00229940
V        2.92950415       8.79131998       0.00119578      -9.19786539      -0.00349699      -0.00644108       0.00338210
V       -1.46493201       1.46244058       7.33575735      -9.22320597       0.00041804      -0.00953949      -0.01025217
V       -0.02173896       2.91285346       5.88923972      -9.58715401      -0.00509780      -0.02887314      -0.01914061
V        2.93431506       5.88661483       2.89605511      -9.58928201      -0.01037989      -0.04030680      -0.01598041
V        4.39576073       7.33525911       1.46090764      -9.04265350      -0.01412871      -0.02035274      -0.00213010
V        0.00321012       0.00489528       8.79718216      -9.48925258      -0.00150324      -0.00517391      -0.00272965
V        1.46264543       1.45995588       7.32878483      -9.54711459       0.00069219      -0.01900084      -0.01961411
V        2.93750785       2.90568494       5.90113727      -9.74240371       0.00781571      -0.02317719      -0.00875590
V        4.37255973       4.40253443       4.42242076      -9.68291913      -0.00495496      -0.03022874      -0.00541841
V        5.87284219       5.85836050       2.90330954      -9.24828368      -0.01173402      -0.01578356      -0.00183689
V        1.46968520      -1.47851280      10.23846067      -9.36248804       0.00377361       0.00552695       0.00650586
V        2.93588737       0.00399546       8.79629643      -9.47658363       0.00573685      -0.00524794       0.00301396
V        4.39790987       1.45216884       7.34404134      -9.05806974       0.00507323      -0.01048681      -0.01047247
V        5.86253981       2.90290524       5.87654887      -9.14655353      -0.00339723      -0.00514835      -0.00206782
V        7.34572736       4.41014232       4.42148024      -9.15083041      -0.01140456      -0.00619813      -0.00523218
V       -5.85826006       5.84167483       5.80356016      -8.91619329       0.00420948      -0.02414492      -0.05282595
V       -2.92313177       8.79518559       2.92036163      -9.37431564       0.00415840      -0.00962001       0.01052333
V       -1.46440074      10.25482986       1.46684655      -8.91815725       0.00063435       0.01055043       0.00253440
V        0.02641565      11.73455153       0.03903185      -8.85255432       0.00907628       0.01222976       0.01828733
V       -4.41266342       4.40114405       7.35779251      -8.89595171       0.00935540       0.00558981      -0.00546413
V       -2.92029511       5.85071026       5.84549074      -9.10206135      -0.03961924       0.02268738       0.04499081
V       -1.45217979       7.32274177       4.38259123      -9.62074992      -0.01127635      -0.01313377       0.01278695
V       -0.01372048       8.79936035       2.92534326      -9.25189272       0.00306972      -0.00570803      -0.00044774
V       -2.93326087       2.93734113       8.80373791      -9.08776201      -0.00094483       0.00704785       0.00109789
V       -1.46157091       4.38639717       7.33039972      -9.31768890       0.00031270       0.00092675      -0.01615921
V       -0.02176766       5.87451924       5.88918887      -9.69492416      -0.00115840      -0.01120005      -0.01146975
V        1.44942381       7.31718681       4.38984883      -9.57252168      -0.00272675      -0.01812896      -0.01509667
V        2.92593176       8.79905788       2.91901813      -9.10580063      -0.00778112      -0.00231919      -0.00577188
V       -1.46718463       1.47688459      10.24797288      -9.25279902      -0.00207340      -0.00500646       0.00680571
V        0.00408009       2.91940067       8.80649462      -9.77665828       0.00574582      -0.00698613      -0.00040704
V        2.92242363       5.87426048       5.88645094      -9.50105472       0.00214100      -0.00986199      -0.00784225
V       -0.00265057       0.00825713      11.69485444      -9.53502999      -0.01467916      -0.00251726       0.05430309
V        2.92800007       2.92591006       8.80724880      -9.83220077      -0.00198825      -0.00561825       0.00173180
V        4.38941135       4.38631769       7.33797954      -9.27610679      -0.00044185      -0.00110793      -0.00930982
W        5.87854327       2.91400358      -0.02524811      -6.71492887      -0.02455520      -0.02982769      -0.00557005
W        2.90932241       2.82817096       2.90603008      -7.16407306       0.13302315      -0.02510450       0.11109026
W       -0.03070891       5.87584458       2.90704164      -6.82898226       0.01205878      -0.03952197      -0.01338438
W        1.45726769       4.38539479       7.35442076      -6.85549049      -0.00195121      -0.01242898      -0.00155905
W        1.45783364       1.47972960      10.24009624      -6.84250481       0.00538934      -0.01587395       0.02314432
Zr       8.78527218       2.92643686      -0.00983100      -8.04356953      -0.00013871      -0.00578616       0.00087725
Zr       5.87746569       5.82827191       5.87530264      -7.85492729       0.04125382       0.03588599       0.05068721
