124
Lattice="-7.334698984912011 7.327326602869729 7.330561733762222 7.332652321213073 -7.332808832545034 7.3339977034273796 7.33118444310953 7.329295232443135 -7.3360444405480525" Properties=species:S:1:pos:R:3:energies:R:1:forces:R:3 energy=-1116.733674212288 free_energy=-1116.733674212288 stress="-0.013448580537598858 -6.116620909981398e-06 0.0006607006465711503 -6.116620909981398e-06 -0.008790064099585883 3.744466518053792e-05 0.0006607006465711503 3.744466518053792e-05 -0.01407962489883819" pbc="T T T"
Cr       2.88256025      -2.89751107       2.88057533      -7.36654872      -0.01233229       0.06638834      -0.01597279
Cr       2.92847689       8.78314310      -2.92352291      -7.45876693      -0.00453525       0.01437506       0.01617933
Cr       4.37805090       7.34450548      -1.47981396      -7.40563354      -0.00994776       0.00403380       0.00882082
Cr       5.89822718       2.91254878       2.95900818      -7.72397578      -0.00481219      -0.00469168       0.00823434
Cr       1.41980347       4.39842134       4.36859276      -8.25631253      -0.00207793      -0.01224828       0.00016105
Cr      -4.39492922       7.33819827       4.34755562      -7.53741685       0.00376340      -0.00491886       0.00401082
Ti       3.05178428       0.04619719      -0.11752341      -7.97567123      -0.06082213       0.13461873       0.07825826
Ti       4.42566611      -4.38245935       7.33988906      -7.88642249      -0.00119493      -0.00345111      -0.00154549
Ti       4.37499337       4.39561850       1.44593603      -9.14664257      -0.00138080      -0.01520617       0.00335367
Ti       1.46562058      10.20162419       1.45516808      -7.93995809      -0.00150464       0.02950827       0.00073073
Ti       4.37301145       7.33142044       4.36765597      -7.96359581      -0.01093271       0.00204876      -0.01253139
V       -0.13329035       0.02306814      -0.13181072      -8.68463749       0.05213432       0.10455922       0.04634635
V        1.46450036       1.47937764      -1.53107363      -9.14635833      -0.00509573       0.02396871      -0.04540484
V        2.93598002       2.94139074      -2.95091240      -9.54622524       0.00633122      -0.00049981      -0.00561312
V        4.39135539       4.39411765      -4.40434358      -9.09421606       0.00814352       0.01591711       0.00667873
V        5.82377026       5.86831118      -5.84291804      -8.92054983       0.03282049       0.01892139       0.00267852
V        1.44743979      -0.49182543       1.47935434      -8.29531748       0.00176076      -1.63594035       0.01599829
V        4.43303910       1.48617872      -1.51840806      -9.51758150      -0.00067128       0.00025410      -0.00066577
V        5.87134965       2.93996989      -2.96815295      -9.27678340      -0.00187690       0.01900629       0.00175347
V        7.35598994       4.44205393      -4.43662452      -8.98532734       0.02802435       0.07149252      -0.01466440
V        4.44059505      -1.47481209       1.47226190      -8.98628906      -0.05192157       0.02359064       0.00154025
V        5.90229068      -0.01756414      -0.00279958      -9.35540299      -0.00981368      -0.00503412      -0.00490495
V        7.34116404       1.47408037      -1.48133009      -9.46809299       0.00489732       0.01137565      -0.01428384
V        8.79008799       2.94278026      -2.96784379      -9.12104337      -0.00065199       0.03652634      -0.01186628
V        4.40226916      -4.38520547       4.38852903      -9.06167975      -0.00410445       0.02175326      -0.00450871
V        5.88282766      -2.93048534       2.93663657      -9.16967557      -0.01051170       0.01218247       0.00314916
V        7.34879074      -1.47623224       1.47569061      -9.35932414      -0.00617448       0.00580410       0.00133299
V        8.79328197      -0.02230224      -0.00012766      -9.34056793      -0.00252295       0.00264219      -0.00078747
V       10.24090567       1.48472573      -1.46622355      -9.04514630      -0.00752159       0.01313844      -0.01143318
V        5.84998194      -5.82635541       5.83430778      -8.97299394      -0.00100255      -0.00081973      -0.00383835
V        7.33603539      -4.39095430       4.38811403      -9.40751436      -0.00582933       0.00219062      -0.00565208
V        8.79321177      -2.91368723       2.95230389      -9.48736424      -0.00098909       0.00463325      -0.00199616
V       10.24233727      -1.48249868       1.47946647      -9.41530883       0.00703797       0.00814478       0.00305580
V       11.69252653      -0.00309996      -0.00285691      -9.04857504       0.00178220      -0.00239062      -0.00792229
V       -1.51050401       1.46971825       1.46872413      -8.81401359      -0.03059097       0.01721952      -0.00640245
V        0.04387017       2.91333499       0.03486653      -8.89967083       0.00118557       0.03418897      -0.00050908
V        1.46235676       4.38997586      -1.45516432      -9.05862180      -0.00180580      -0.00886138      -0.00196608
V        2.92928826       5.85521172      -2.92963133      -9.15405582       0.00042663      -0.00005581       0.00656967
V        4.34364217       7.32953965      -4.39331384      -9.18098327       0.00352045      -0.00275273       0.00766732
V       -0.12523219       0.02983717       3.05586011      -8.69573700       0.08499205       0.12362467      -0.08001244
V        2.88133936       2.91460913      -0.01001525      -9.35684791       0.00704596       0.03189893      -0.01346505
V        4.39803111       4.38775332      -1.47649635      -9.47164750       0.00789517       0.00527363      -0.00807154
V        5.83897976       5.85460829      -2.91263641      -9.14141219       0.00782579       0.01468917      -0.00640003
V        1.47232147      -1.45679041       4.42836757      -9.00809800       0.00102755       0.02385869      -0.04800736
V        3.06669173       0.00782901       3.05266469      -9.01058776      -0.05301917       0.10219184      -0.05995750
V        4.44225410       1.43437640       1.44235754      -9.68751171       0.05856644       0.02038358       0.00110323
V        7.34066718       4.39185510      -1.47668325      -9.48698718      -0.00596117       0.01486614      -0.00561375
V        2.93994956      -2.92863380       5.86870255      -9.08569089       0.00477083       0.01291199      -0.01073923
V        4.42144291      -1.48707817       4.42544149      -9.03913123      -0.01372299       0.01491788      -0.01067868
V        5.90812821      -0.01725518       2.93943153      -9.24920907      -0.00263435      -0.00373316       0.00675477
V        7.37288702       1.44549067       1.44144542      -9.53357446       0.00134497      -0.00433763       0.00083183
V        5.88209291      -2.92992016       5.87136294      -8.96367227      -0.00523327       0.00317568      -0.00236880
V        7.34059880      -1.47726872       4.41206217      -8.98257538      -0.00366405      -0.00115619       0.00606560
V        8.79120884      -0.00980973       2.93951808      -9.22324540      -0.00081078       0.00452761       0.00550785
V       10.24836721       1.46544621       1.46170868      -9.10231662      -0.00289361      -0.00283942       0.00554714
V       -2.94304667       2.94068568       2.93554890      -9.14845055      -0.00120316      -0.00106765       0.00604663
V       -1.45101705       4.39598184       1.47245751      -9.40015673       0.00379812      -0.00793530       0.00143779
V       -0.00059493       5.86664344      -0.01405574      -9.22090691       0.00701018      -0.00805450       0.00578151
V        1.46327443       7.32768988      -1.47245706      -9.15321333      -0.00208387       0.00702380       0.00885191
V       -1.48843010       1.48196481       4.42857765      -9.16589680      -0.00265980      -0.00109487       0.00147706
V       -0.02332775       2.88721060       2.88307851      -9.40098013      -0.01654244       0.04613129       0.01160887
V        1.45748818       4.46190436       1.46975788      -9.70982900       0.00335300      -0.02326504       0.00428187
V        2.92688702       5.86602603      -0.01472777      -9.25984900      -0.00413548      -0.00379935       0.00539656
V        0.00464511      -0.00151963       5.90778850      -9.04634666      -0.00672971      -0.00749075      -0.00288964
V        1.45779148       1.45387421       4.45459377      -9.37007065      -0.00192115       0.01648984       0.05003291
V        5.87414915       5.88742090      -0.01303866      -9.33812280      -0.00458321      -0.00016609      -0.00046211
V        1.47225755      -1.45176468       7.34442617      -9.07459606       0.00198422       0.00667433      -0.00821043
V        2.94131386      -0.00501511       5.91049945      -9.04725931       0.00867433      -0.00567401      -0.00122318
V        4.41264817       1.45376811       4.45723074      -9.43941635       0.00233908      -0.00117519       0.00015184
V        7.35631439       4.40670763       1.44210842      -9.47112965       0.00150400       0.00091294       0.00040226
V        2.94163990      -2.92440407       8.79633825      -9.05623157       0.00234429       0.00046600      -0.00178552
V        4.41598188      -1.46447176       7.33936825      -9.00262273       0.00790572      -0.00280120      -0.00214003
V        5.88429588      -0.00384112       5.88459704      -8.97251995       0.00722155       0.00027131       0.00744110
V        7.34522660       1.44139495       4.42884540      -9.12287983       0.00629512       0.01073232       0.01417335
V        8.80548966       2.92976984       2.95733821      -9.24187553       0.00158827       0.01025485       0.00771173
V       -4.39226081       4.40085396       4.39343156      -9.17195048       0.00525575       0.01611938       0.00765536
V       -2.93896972       5.86105222       2.91007275      -9.38226437       0.00882497      -0.00018491       0.00056890
V       -1.46898213       7.32808239       1.46212057      -9.42457255       0.01104726       0.00699263      -0.00005819
V        0.00028527       8.79437509       0.01219136      -9.02951892       0.00650428       0.02369640       0.00771116
V        1.46630573      10.26856329      -1.44558331      -9.13481099       0.00195922       0.03391751       0.01076783
V       -2.94853136       2.93845632       5.87449353      -9.17684125       0.00115489       0.01872393       0.00056600
V       -1.46199959       4.39833558       4.39700190      -9.64883255      -0.00371408       0.00303537       0.00743040
V        1.46049755       7.33074615       1.46874539      -9.48561146       0.00216216       0.00903122       0.00227573
V        2.92801092       8.80067706       0.00294314      -9.19194508      -0.00563167       0.02170410       0.00495037
V       -1.47011846       1.46785632       7.34112505      -9.22605073      -0.01297207       0.01313796       0.00513589
V       -0.02238194       2.91906051       5.89809893      -9.57678944      -0.00604593       0.00122877       0.00515521
V        2.93565316       5.89210718       2.89984961      -9.59597057      -0.00374887      -0.01398463      -0.00504976
V        4.39629794       7.34268080       1.46151473      -9.04320182      -0.00721821       0.00577879       0.00049350
V        0.00275491       0.00515534       8.79662168      -9.49575332      -0.00079958       0.00326780      -0.00225066
V        1.46259167       1.46226386       7.33612363      -9.55766847       0.00148519      -0.00172272       0.00531814
V        2.93780861       2.91085585       5.90625579      -9.71962068       0.00460433      -0.00225640       0.00256645
V        4.37164879       4.40685578       4.42129025      -9.67794731      -0.01018021      -0.00971584      -0.00752054
V        5.87535308       5.86084704       2.90522423      -9.24788779      -0.00323966      -0.00165835       0.00106669
V        1.46925968      -1.48146993      10.23908458      -9.35239929       0.00392475       0.00791140       0.00611690
V        2.93675705       0.00416931       8.79496528      -9.48287869       0.00659360       0.00270927      -0.00188852
V        4.40243293       1.45732261       7.34972364      -9.06194540       0.01477327       0.01103786       0.00632569
V        5.86955264       2.91348301       5.88303299      -9.13805619       0.00296230       0.02130841       0.00328138
V        7.34908161       4.41476268       4.42683091      -9.15690658      -0.00487413       0.01261547       0.00545340
V       -5.85827217       5.86567541       5.83113904      -9.05892883       0.00213198       0.02734922       0.03479294
V       -2.91777540       8.80048853       2.91390780      -9.37644878       0.01551916       0.01282801      -0.00474701
V       -1.45587317      10.26648301       1.46654735      -8.92045158       0.01201732       0.03550505       0.00183605
V        0.03109082      11.77421814       0.04042459      -9.00337372       0.00498997       0.05846984       0.00534910
V       -4.42424725       4.43731072       7.37088813      -9.04325059      -0.01993978       0.07489347       0.02893745
V       -2.91509870       5.85303682       5.83857777      -9.10368718      -0.01194911       0.01893862       0.01225384
V       -1.44770510       7.32675622       4.37810569      -9.61830674       0.00516133       0.00426424      -0.00380969
V       -0.01173861       8.80914803       2.92384716      -9.24506309       0.00415302       0.02233254      -0.00219035
V       -2.94019862       2.94764567       8.80286261      -9.08952415      -0.01195440       0.03318535      -0.00164933
V       -1.46713443       4.39215963       7.33418103      -9.31656202      -0.00749182       0.01699322      -0.00520679
V       -0.02467026       5.87779393       5.89370011      -9.69444079      -0.00180814       0.00006613      -0.00357910
V        1.45043888       7.32438918       4.39129961      -9.57221389       0.00000245       0.00554843      -0.00597410
V        2.92471429       8.81026679       2.91789239      -9.10180013      -0.00649545       0.02712144      -0.00464755
V       -1.47140009       1.48017248      10.24233957      -9.24948863      -0.01076407       0.01182123      -0.00966077
V       -0.00133408       2.92428370       8.80627916      -9.77633541      -0.00507929       0.01056020      -0.00044957
V        2.92410352       5.87592433       5.88787144      -9.50085704       0.00074429      -0.00139229      -0.00475993
V       -0.00299544       0.00670935      11.68118413      -9.54112197      -0.00676601      -0.00455615      -0.00284306
V        2.93265643       2.92993240       8.80667406      -9.83163707       0.00661637       0.01041417       0.00089836
V        4.39504103       4.39145233       7.34119824      -9.27639145       0.00963023       0.01660485      -0.00209428
W        5.89034131       2.92123894      -0.02775034      -6.68957832       0.00635383       0.00346302      -0.01088210
W        2.88358838       2.85419201       2.88104252      -7.21131147      -0.01019482       0.00792966      -0.01958046
W       -0.03129905       5.88740085       2.91062586      -6.80792813       0.00281766       0.00007835       0.00099643
W        1.45739609       4.38849458       7.35769700      -6.84396686       0.00030430       0.00582470       0.00295776
W        1.45785598       1.48115081      10.23015877      -6.84141487       0.00281311      -0.00430099      -0.00803218
Zr       8.78505382       2.93007179      -0.01357722      -8.04445853       0.00132094       0.00934111      -0.00404904
Zr       5.87287225       5.82842413       5.87027421      -7.84084590       0.00414745       0.01572512       0.00743071
