124
Lattice="-7.334698984912011 7.327326602869729 7.330561733762222 7.332652321213073 -7.332808832545034 7.3339977034273796 7.33118444310953 7.329295232443135 -7.3360444405480525" Properties=species:S:1:pos:R:3:energies:R:1:forces:R:3 energy=-1116.846743102049 free_energy=-1116.846743102049 stress="-0.013930426274609905 0.00011743288160840826 0.0005081518778297755 0.00011743288160840826 -0.009686880624792327 -8.661183296747229e-05 0.0005081518778297755 -8.661183296747229e-05 -0.014223318561398565" pbc="T T T"
Cr       2.88896072      -2.92946382       2.88748793      -7.31127525       0.00823768      -0.04004696       0.00458369
Cr       2.93115837       8.77982522      -2.92815052      -7.45500277       0.00487814      -0.00041193       0.00124714
Cr       4.37899651       7.34367836      -1.48056753      -7.40733988      -0.00878920      -0.00080836       0.00718496
Cr       5.89724063       2.90961741       2.95762193      -7.73112323      -0.00616731      -0.01901694       0.00762890
Cr       1.42165794       4.39412769       4.36534082      -8.26481539       0.00448490      -0.03323591      -0.01142435
Cr      -4.39583191       7.33952389       4.34883279      -7.53622539       0.00650338       0.00515509       0.01540758
Ti       3.04765280      -0.03270714      -0.11490700      -7.96479292      -0.05289050      -0.14598486       0.07139957
Ti       4.42838841      -4.38417045       7.34033314      -7.88976361       0.00755878      -0.01619776      -0.00243619
Ti       4.37014833       4.39037899       1.44640806      -9.15192863      -0.01543589      -0.03830185       0.00364927
Ti       1.46686712      10.19496689       1.45574700      -7.91891758       0.00245103       0.00583863       0.00233039
Ti       4.37331800       7.33109100       4.36813908      -7.95951907      -0.00808621      -0.00202567      -0.00928616
V       -0.13340020      -0.04613762      -0.13129900      -8.68452623       0.03232662      -0.13869857       0.02878824
V        1.46704092       1.46530798      -1.50474335      -9.25705192       0.00316249      -0.02573988       0.04914298
V        2.93412813       2.93794428      -2.94576167      -9.55235956       0.00236627      -0.02132546       0.01250354
V        4.38746466       4.39037686      -4.40316335      -9.09474970      -0.00046853       0.00626913       0.01090992
V        5.80537238       5.85652841      -5.84359707      -8.79542875      -0.03866763      -0.02193805       0.00060843
V        1.44515479       0.50039528       1.46960680      -8.34015286      -0.00920180       1.85224520      -0.02549436
V        4.43149468       1.48230586      -1.51559322      -9.53024271      -0.01842313      -0.02906975       0.02029401
V        5.86697406       2.93248912      -2.96390807      -9.27624560      -0.01048191      -0.00444097       0.01169226
V        7.34317293       4.40682594      -4.42703466      -8.84447511      -0.01931571      -0.05024923       0.02154749
V        4.46594203      -1.48676508       1.47119551      -8.86879703       0.04596894      -0.01968143       0.00019127
V        5.90354996      -0.01695094      -0.00217700      -9.35718975      -0.01256256       0.00165959      -0.00827593
V        7.33796204       1.47062073      -1.47771765      -9.46548386      -0.00562878      -0.00276583      -0.00262484
V        8.79010311       2.93449735      -2.96221728      -9.11632736      -0.00126096       0.00947591       0.00637917
V        4.40505874      -4.39095732       4.39144117      -9.05975342       0.00156425       0.00236576       0.00167643
V        5.88853928      -2.93379003       2.93759116      -9.16845011       0.00473707       0.00328595       0.00570612
V        7.35135204      -1.47656581       1.47537731      -9.36347531      -0.00113575       0.00163875       0.00044671
V        8.79360827      -0.02275401       0.00004475      -9.33890902      -0.00287406      -0.00367674      -0.00090475
V       10.24308488       1.48231697      -1.46370919      -9.04759759       0.00064010       0.00260969      -0.00442647
V        5.84852634      -5.82775720       5.83391158      -8.97815915      -0.00100112      -0.01485738      -0.00213735
V        7.33784866      -4.39424320       4.39256900      -9.41413775      -0.00250298      -0.01664577       0.00978410
V        8.79362735      -2.91636280       2.95541819      -9.48750245      -0.00007996      -0.01000011       0.00774523
V       10.23955209      -1.48313435       1.47941538      -9.41937950       0.00005277       0.00239537       0.00318668
V       11.69243601      -0.00160031      -0.00199038      -9.04808118       0.00960131       0.00713918      -0.01066745
V       -1.49097383       1.46033019       1.47279074      -8.93280402       0.04107997      -0.01607184       0.00712521
V        0.04295510       2.88959555       0.03545572      -9.04092667      -0.00696149      -0.05818016      -0.00457976
V        1.46284488       4.38452852      -1.45136896      -9.06140277       0.00093272      -0.03462814       0.01017774
V        2.92743846       5.85240331      -2.92743780      -9.15576549      -0.00482248      -0.01295466       0.01411008
V        4.34464681       7.33007382      -4.39393078      -9.17952668       0.01455818       0.00499077       0.01332707
V       -0.11912252      -0.04276589       3.05054079      -8.70580385       0.08234559      -0.13447619      -0.07364460
V        2.87523649       2.88427285      -0.00334898      -9.50766279      -0.01436360      -0.08505024       0.00642966
V        4.39372605       4.38168785      -1.47290853      -9.47335526      -0.00631489      -0.02131623       0.00347231
V        5.83833507       5.85165822      -2.91183090      -9.13137438       0.01474839       0.01382088      -0.01063016
V        1.47213838      -1.46919923       4.45283236      -8.87895090      -0.00033376      -0.01975953       0.04638943
V        3.06024813      -0.05625957       3.04782641      -8.99515948      -0.05225571      -0.12334419      -0.05872853
V        4.41669451       1.42763059       1.44579592      -9.83994235      -0.03799076      -0.00701698       0.00860822
V        7.33963354       4.38833175      -1.47287159      -9.48417701      -0.00908689       0.00494753       0.00426718
V        2.94052649      -2.93155123       5.87416703      -9.08344268       0.00473338       0.00552581       0.00366505
V        4.42547534      -1.49158424       4.42840057      -9.03113472      -0.00541679       0.00703255      -0.00581763
V        5.90857369      -0.01649156       2.93870753      -9.25046411      -0.00923228       0.00210483       0.00986020
V        7.37077334       1.44522524       1.44127768      -9.52890791      -0.00898754      -0.01047410      -0.00065460
V        5.88568608      -2.93518523       5.87359028      -8.96467160       0.00500229      -0.02081500       0.00310578
V        7.34374279      -1.47971326       4.41458260      -8.98402010       0.00498326      -0.01180342       0.01489977
V        8.79160722      -0.01092653       2.93893749      -9.22228039       0.00017585      -0.00288692       0.00473414
V       10.25152922       1.46497878       1.46164073      -9.09825763       0.01053441      -0.00877233       0.00535982
V       -2.93855318       2.93744305       2.93464836      -9.15048726       0.01336634      -0.01914711       0.00753517
V       -1.44822513       4.39022764       1.47214740      -9.40468228       0.01249820      -0.03379844       0.00070329
V       -0.00019972       5.86264352      -0.01417483      -9.21861207       0.00978638      -0.02190795       0.00661682
V        1.46363980       7.32452384      -1.47304230      -9.15337829      -0.00095813      -0.00402017       0.00905533
V       -1.48618461       1.47983316       4.42772857      -9.17945847       0.01738202      -0.02439879      -0.01368228
V       -0.01722643       2.85599610       2.87685671      -9.53806008       0.00162235      -0.07252263      -0.00817160
V        1.45669116       4.45324238       1.46659086      -9.72766627       0.00193576      -0.05617282      -0.00542036
V        2.92655158       5.86188127      -0.01527226      -9.25219273      -0.00611456      -0.01914548       0.00500149
V        0.00551336      -0.00100829       5.90765719      -9.04612867      -0.00867820      -0.00061661      -0.01310272
V        1.46032423       1.44707099       4.43167276      -9.52352304       0.00623921      -0.00995732      -0.03635253
V        5.87142359       5.88492850      -0.01049115      -9.33892207      -0.01319243      -0.01263629       0.00735084
V        1.47199150      -1.45205077       7.34771220      -9.07763162       0.00138462       0.00318895      -0.00150402
V        2.94096280      -0.00496564       5.90987003      -9.04772108       0.01323902      -0.00185139      -0.01114436
V        4.40806610       1.44988652       4.45382098      -9.45969844      -0.02112033      -0.03006813      -0.01739326
V        7.35352574       4.40480512       1.44210312      -9.47090783      -0.00654218      -0.01119901       0.00081271
V        2.94412527      -2.92612174       8.79677303      -9.05708684       0.00994104      -0.01133156       0.00023946
V        4.41829493      -1.46659153       7.34193947      -9.00477679       0.01625426      -0.01280441       0.00460165
V        5.88404722      -0.00491805       5.88433521      -8.97284389       0.00525678      -0.00446484       0.00453157
V        7.34319838       1.43811596       4.42589975      -9.12059210      -0.00240361      -0.00277500       0.00561565
V        8.80561345       2.92725321       2.95392668      -9.24205841       0.00241999      -0.00005020      -0.00108904
V       -4.39045191       4.39649179       4.38920223      -9.17109716       0.01105774       0.00494174      -0.00220389
V       -2.93735708       5.85888737       2.90838696      -9.38518395       0.01512194      -0.01064294      -0.00444924
V       -1.46932376       7.32434107       1.46233357      -9.42443761       0.01352693      -0.00670891       0.00113589
V       -0.00097062       8.78858485       0.01086502      -9.03556933       0.00441286       0.00645911       0.00452854
V        1.46655193      10.26106778      -1.45109246      -9.13419724       0.00334627       0.01058868      -0.00479987
V       -2.94463556       2.93090195       5.86969377      -9.17561741       0.01036707      -0.00768619      -0.01189446
V       -1.45935965       4.39324603       4.39378384      -9.65076976       0.00378085      -0.01991091      -0.00201281
V        1.46030983       7.32434532       1.46870682      -9.48515422       0.00215856      -0.01300347       0.00263209
V        2.92920823       8.79517143       0.00176846      -9.19852671      -0.00336996       0.00592025       0.00273945
V       -1.46670243       1.46444574       7.33890057      -9.22495743      -0.00244437      -0.00082803      -0.00325678
V       -0.02154984       2.91573035       5.89431410      -9.58025654      -0.00563520      -0.01716275      -0.00726797
V        2.93553804       5.89165399       2.89896599      -9.58080353      -0.00490519      -0.01785260      -0.00720791
V        4.39677702       7.33923486       1.46136470      -9.04273778      -0.00796095      -0.00614675      -0.00035715
V        0.00310718       0.00478826       8.79716775      -9.49485668       0.00015851      -0.00256016      -0.00120240
V        1.46277558       1.46178496       7.33318589      -9.55183576       0.00140612      -0.00970150      -0.01044583
V        2.93745933       2.90776094       5.90369144      -9.72272714       0.00716755      -0.01789660      -0.00630448
V        4.37215989       4.40513362       4.42208050      -9.67184802      -0.00648284      -0.02172259      -0.00334587
V        5.87372132       5.85940509       2.90278752      -9.24596421      -0.00818343      -0.01003950      -0.00530377
V        1.46968078      -1.48098004      10.23691726      -9.35674472       0.00573265       0.00535619       0.00076817
V        2.93632721       0.00379177       8.79548673      -9.48130814       0.00585173      -0.00311724       0.00108280
V        4.39938198       1.45420688       7.34732229      -9.06035019       0.00624807      -0.00243503      -0.00321395
V        5.86576530       2.90589693       5.87912022      -9.13784669      -0.00465540      -0.00285828      -0.00616011
V        7.34813731       4.41193274       4.42240401      -9.15243458      -0.00714533       0.00366162      -0.00619015
V       -5.85907216       5.85063209       5.81235324      -8.93917364      -0.00039500      -0.02649518      -0.04092255
V       -2.92140047       8.79726212       2.91676452      -9.37498941       0.00474394      -0.00113310       0.00418920
V       -1.46171040      10.25818925       1.46683458      -8.91780700      -0.00301768       0.01065191       0.00272964
V        0.02695624      11.73988825       0.03732273      -8.85268174      -0.00653081      -0.05731785      -0.00148082
V       -4.41368110       4.40533397       7.35740505      -8.90491135       0.01864045      -0.03812376      -0.02024052
V       -2.91276197       5.84898581       5.83674779      -9.09617978      -0.00905562       0.01320883       0.01192703
V       -1.44777280       7.32430050       4.37833778      -9.61724902       0.00318350      -0.00489367      -0.00125762
V       -0.01303535       8.80295797       2.92504886      -9.25293760       0.00176007       0.00384042       0.00052113
V       -2.93496199       2.94048051       8.80330155      -9.08674863       0.00349041       0.01102578      -0.00028495
V       -1.46245074       4.38808445       7.33315979      -9.31571318       0.00423119       0.00516895      -0.00893562
V       -0.02119918       5.87548535       5.89055579      -9.69780770       0.00608252      -0.00826821      -0.01199741
V        1.45015317       7.32097920       4.39137471      -9.57260258      -0.00172602      -0.00621505      -0.00776463
V        2.92581368       8.80239030       2.91879555      -9.10715195      -0.00590052       0.00174407      -0.00441388
V       -1.46851572       1.47816596      10.24497792      -9.25356882      -0.00220552       0.00251487       0.00019349
V        0.00217115       2.92129503       8.80648293      -9.77648387       0.00588412      -0.00225414       0.00039478
V        2.92177713       5.87466866       5.88628181      -9.50057052      -0.00330122      -0.00691887      -0.00857520
V       -0.00227569       0.00793038      11.68172999      -9.54312964      -0.00870598       0.00550546       0.00789358
V        2.92968529       2.92730711       8.80704024      -9.83252756      -0.00184948      -0.00091463       0.00217045
V        4.39039198       4.38795779       7.33996644      -9.27535679      -0.00163711       0.00696433      -0.00511901
W        5.88462990       2.91673184      -0.02499305      -6.70283523      -0.01242857      -0.01971780      -0.00449434
W        2.87860054       2.82649064       2.88096647      -7.25481125      -0.02484449      -0.10051290      -0.01605433
W       -0.03129470       5.88199426       2.90938411      -6.80796124       0.00445409      -0.01854838      -0.00283976
W        1.45753672       4.38617425       7.35515995      -6.84550990      -0.00075422      -0.00707086      -0.00369339
W        1.45763971       1.48114070      10.23440193      -6.83663676       0.00355668      -0.00774050       0.01182728
Zr       8.78481395       2.92769954      -0.01069249      -8.04063122      -0.00039906      -0.00153058       0.00388411
Zr       5.86849683       5.82417935       5.86477112      -7.83990324      -0.00803391       0.01022470      -0.00696336
