128
Lattice="12.05239363577153 3.552520251448903e-05 -0.00021928746231963074 3.551963359022388e-05 12.055582501008777 -3.698160418695492e-05 -0.00021928845706198425 -3.698237207466351e-05 12.052580388546156" Properties=species:S:1:pos:R:3:forces:R:3 energy=-1154.067293138697 free_energy=-1154.067293138697 stress="-0.00020762661300827788 -1.3246846597823971e-05 2.1533834029531746e-05 -1.3246846597823971e-05 -0.0007264183885684076 4.193012755581147e-07 2.1533834029531746e-05 4.193012755581147e-07 -0.000195282445102352" pbc="T T T"
Cr       3.01273397       9.03212397       0.01542583       0.00182531      -0.00281336       0.00105605
Cr       9.02710354       3.01572487       3.04789104      -0.00043014       0.00411577       0.00212978
Ti       3.02510189       6.01819537       9.04982356       0.00044390       0.00254007      -0.00420521
Ti       9.03805000      -0.00082949       9.02175776       0.00079800       0.00021512      -0.00289344
V        0.06672518      -0.00058796       0.02055574      -0.00095699       0.00119685      -0.00104817
V        1.51540980       1.48521046       1.53983334       0.00242779       0.00121527      -0.00229704
V       -0.01534213       0.00145204       3.00790898       0.00026656       0.00084581       0.00051351
V        1.50363301       1.49069780       4.49586819      -0.00056000      -0.00005816       0.00154189
V       -0.00828742       0.00323300       6.00808015       0.00331826       0.00090927      -0.00197659
V        1.41788654       1.58692201       7.42405235       0.00094561      -0.00034890       0.00017953
V       -0.03841899      -0.00121090       9.03596486      -0.00345423       0.00036237      -0.00044583
V        1.47294276       1.57759004      10.63516788      -0.00123802      -0.00268738      -0.00288035
V        0.01244440       3.01614332       0.00986704       0.00155765       0.00362302       0.00171797
V        1.54191888       4.53959438       1.49525258      -0.00206187       0.00130128       0.00231981
V        0.03908145       2.99955839       3.02972090      -0.00257896       0.00196194      -0.00011662
V        1.51105028       4.53018375       4.50717439      -0.00065138      -0.00242883      -0.00065491
V       -0.01041919       3.00910147       6.00984950       0.00008351       0.00121614       0.00168442
V        1.46030916       4.49555866       7.50967844       0.00430071       0.00120286      -0.00201042
V       -0.00254953       3.03312113       9.03393135       0.00046857      -0.00016307      -0.00096894
V        1.47411879       4.52320116      10.58616946       0.00051550      -0.00039354      -0.00016944
V        0.03510637       6.04330430      -0.02066394       0.00033502       0.00185322       0.00157855
V        1.55216727       7.57317511       1.47531250      -0.00192907      -0.00410133       0.00054754
V       -0.00117535       6.04544656       3.01802464       0.00320441      -0.00112630      -0.00113184
V        1.51754720       7.53093471       4.48598938      -0.00167271       0.00200264       0.00218503
V        0.02513708       6.01287476       6.01209240      -0.00343463      -0.00010922      -0.00073880
V        1.51468180       7.56011438       7.50247298      -0.00076027      -0.00322427      -0.00067497
V       -0.00413178       6.01483789       9.05400185       0.00170853       0.00057466      -0.00019415
V        1.52518459       7.56088401      10.61538318      -0.00186178       0.00036303      -0.00056820
V       -0.00081697       9.03472964       0.01855480      -0.00057331       0.00080518      -0.00080053
V        1.54200142      10.53052378       1.51352336       0.00051849       0.00006619      -0.00261141
V        0.00455030       9.04678265       3.01020248       0.00172813       0.00129170      -0.00089950
V        1.50151737      10.56034727       4.48214488       0.00089126      -0.00002191       0.00035394
V        0.00010214       9.06350861       5.98994866       0.00032006      -0.00394264      -0.00026966
V        1.43080684      10.47670960       7.43122611       0.00244977       0.00103385       0.00013298
V        0.03230424       9.03958262       9.03468904      -0.00252991      -0.00057780      -0.00046434
V        1.52574372      10.44613522      10.65475204      -0.00228038       0.00166624      -0.00065004
V        3.01665390       0.02321083       0.07204120      -0.00039574      -0.00086199       0.00087943
V        4.51328457       1.48400267       1.54011579      -0.00281719       0.00190925      -0.00210125
V        3.01280072      -0.00152570       3.02325939       0.00000164      -0.00079585      -0.00167739
V        4.51552868       1.49084590       4.48710702      -0.00094926       0.00004176       0.00418457
V        3.01722471       0.00106425       5.94517317      -0.00088943      -0.00107590      -0.00174381
V        4.60271858       1.56969743       7.42341394      -0.00274641      -0.00069539       0.00293964
V        4.55367138       1.57808097      10.65124786       0.00050756      -0.00182503      -0.00220356
V        3.01541767       3.02039000       0.01222411       0.00060524       0.00148350       0.00317083
V        4.50632679       4.52804810       1.50095186       0.00244641       0.00254923       0.00200828
V        3.01523960       3.00947406       2.99784677      -0.00029034       0.00331720       0.00382406
V        4.51648554       4.53250546       4.51082737       0.00349338      -0.00356241      -0.00097035
V        3.01448114       3.02344769       6.01580845       0.00092188      -0.00051389      -0.00077714
V        4.58249117       4.49190549       7.50922421      -0.00549402       0.00104781      -0.00111897
V        3.01342628       3.09053091       9.05693345       0.00143580      -0.00229459      -0.00157182
V        4.56518594       4.52430516      10.59716648      -0.00198761      -0.00228242      -0.00123810
V        3.01753811       6.01354052       0.00534283       0.00088273       0.00165193       0.00196500
V        4.48113937       7.56504554       1.47683312       0.00121297      -0.00296866       0.00176290
V        3.01486966       6.03545691       3.01987662       0.00204075      -0.00020381      -0.00842563
V        4.51931329       7.52745746       4.48245431       0.00203447       0.00167228       0.00424252
V        3.01874566       6.02508864       5.98724052       0.00133516       0.00061745       0.00906159
V        4.56493037       7.56125271       7.50986663      -0.00124659      -0.00261684      -0.00164875
V        4.50863093       7.55671740      10.62971083       0.00271551       0.00265339      -0.00461413
V        4.47977102      10.53976683       1.51291807      -0.00195365      -0.00106875      -0.00131247
V        3.01493249       9.04274485       3.02475678       0.00002658      -0.00065889      -0.00386093
V        4.50791276      10.55299333       4.50029039       0.00058527       0.00086441      -0.00104545
V        3.01841399       9.03146269       6.00728975       0.00062941       0.00097026      -0.00108126
V        4.60088398      10.48123618       7.43211727      -0.00312387      -0.00142018       0.00127632
V        3.01524676       8.96649279       9.02673620       0.00150494       0.00158598      -0.00088647
V        4.49598061      10.43892829      10.64660236       0.00137784       0.00158322      -0.00106850
V        5.94857435       0.00032487       0.02016330       0.00051031      -0.00051639      -0.00131805
V        7.51988655       1.61323299       1.63615545      -0.00399512      -0.00082744       0.00026153
V        6.03478528       0.00006432       3.01466624      -0.00074367      -0.00060469       0.00124547
V        7.56602575       1.51803240       4.52959219      -0.00267480       0.00054102      -0.00230276
V        6.02547300      -0.00651591       6.01535143      -0.00201799       0.00111202      -0.00127745
V        7.53233743       1.53452384       7.49140582      -0.00116940      -0.00035774      -0.00140078
V        6.05729220      -0.00597096       9.02670653       0.00258286      -0.00017301      -0.00047052
V        7.40455844       1.66444210      10.48719702       0.00165165      -0.00425304       0.00201700
V        6.02296881       3.03846341       0.03180824      -0.00239707      -0.00034781       0.00052455
V        7.52562677       4.53078609       1.54825669       0.00159794      -0.00319861      -0.00173968
V        5.98851416       3.00672256       3.02422851       0.00443256       0.00273972       0.00091886
V        7.55605942       4.48529795       4.50565818      -0.00195011       0.00240715       0.00051982
V        6.03416051       3.00598282       6.01157047       0.00196081       0.00297119       0.00065479
V        7.55457439       4.53434324       7.52823487      -0.00153798      -0.00224737       0.00122082
V        6.03242735       3.03821152       9.03338009       0.00005621      -0.00097671       0.00045355
V        7.54634152       4.55822464      10.54822688       0.00070730      -0.00242687       0.00086671
V        6.00884309       6.02003804       0.01117756       0.00162284       0.00270255      -0.00010928
V        7.52455385       7.50634646       1.50961741      -0.00205459       0.00321576       0.00089428
V        6.04338482       6.02648345       3.00180898      -0.00597261      -0.00095964       0.00275483
V        7.53553713       7.51967293       4.52595054      -0.00194583       0.00026387      -0.00024118
V        6.01535816       6.02338478       6.02294400       0.00351171      -0.00156003      -0.00078073
V        7.51392364       7.50178751       7.53793997       0.00198775       0.00271324      -0.00146185
V        6.04964220       6.02368849       9.04911936      -0.00316046      -0.00010584       0.00076615
V        7.53446753       7.49399775      10.53786119      -0.00001459       0.00206835       0.00278796
V        6.02480104       9.01983466       0.02041874       0.00041011       0.00081564      -0.00085507
V        7.43377388      10.47525577       1.59083811       0.00309667      -0.00028429       0.00116798
V        6.01950940       9.04874714       3.01255264      -0.00054183      -0.00199006      -0.00028883
V        7.54622430      10.57651633       4.52861663      -0.00263679      -0.00385393       0.00002304
V        6.04091057       9.04708377       6.01048112      -0.00205557      -0.00233732      -0.00171019
V        7.51945380      10.52608910       7.49022277      -0.00080349       0.00004072      -0.00073085
V        6.00411760       9.01801098       9.03089186       0.00246231       0.00073716       0.00049170
V        7.37883564      10.39313288      10.49665215       0.00398649       0.00188004       0.00032626
V       10.55750393       1.55194956       1.62841715       0.00143723       0.00043956       0.00156093
V        9.04035898      -0.01546793       3.06752675      -0.00091519       0.00152254      -0.00022677
V       10.50618075       1.52381513       4.51609863       0.00024266      -0.00059652      -0.00168354
V        9.04206036       0.00608049       6.02733555       0.00036052      -0.00153051      -0.00259599
V       10.55285014       1.52137218       7.49216791      -0.00016280       0.00129885      -0.00135829
V       10.66822348       1.64567852      10.49801329      -0.00273653      -0.00308434      -0.00005184
V        9.02879443       3.06331906      -0.01405352      -0.00097659       0.00253246       0.00020560
V       10.51090082       4.48295130       4.53431277       0.00215488       0.00444904      -0.00230778
V        9.03327580       3.01748510       6.05775029       0.00067624       0.00062324      -0.00182633
V       10.51796193       4.49642496       7.53047239       0.00229453       0.00106463       0.00065738
V        9.03811007       3.02976856       9.03092880       0.00037790      -0.00065068       0.00207621
V       10.53346017       4.55850804      10.51655166      -0.00061304      -0.00096434       0.00148065
V        9.02857736       6.05699773       0.01066450       0.00072497      -0.00311641      -0.00184002
V       10.55354903       7.55314446       1.50824188       0.00018762      -0.00114075       0.00089557
V        9.01901425       6.05808927       3.04089205       0.00244422      -0.00404611       0.00052628
V       10.52856090       7.52394085       4.48393356       0.00326423       0.00025095       0.00376263
V        9.02068617       6.00225923       5.99500574       0.00217577       0.00077733       0.00266916
V        9.02362645       6.01566205       9.03827887       0.00110011      -0.00175995       0.00253563
V       10.54419863       7.50439745      10.56690800      -0.00162720       0.00005805       0.00139312
V        9.03777443       8.96876242      -0.00345254      -0.00001054       0.00132496       0.00066102
V       10.63789860      10.49795072       1.57816589      -0.00341177      -0.00247902       0.00201883
V        9.03642428       9.03132561       3.01683469       0.00069368       0.00148317      -0.00004746
V       10.54124301      10.58105937       4.52772492      -0.00202869      -0.00297175      -0.00175216
V        9.02278081       9.04637244       6.01248289       0.00074868      -0.00076341      -0.00195930
V       10.56296119      10.57132059       7.48291682       0.00006739      -0.00015552      -0.00107785
V        9.03360535       9.03170131       9.04670167      -0.00104342       0.00129451       0.00138652
V       10.68986829      10.40800005      10.50211124      -0.00376572       0.00227694      -0.00008000
W       10.53628772       4.52821267       1.52972063      -0.00179190      -0.00140691       0.00233166
W       10.53745023       7.52497219       7.52417304       0.00317741       0.00080062      -0.00106446
Zr       3.01270360       0.00815023       8.99972773      -0.00095277      -0.00075534       0.00085348
Zr       9.02045459      -0.01694300      -0.01310192       0.00000561       0.00056820       0.00440928
