127
Lattice="12.044405702 -0.004505072 0.000251258 -0.004506835 12.056999608 0.003663643 0.000253414 0.003660859 12.047399059" Properties=species:S:1:pos:R:3:forces:R:3 stress="0.003635910001664656 7.246392095150463e-06 -0.00018011747035473908 7.246392095150463e-06 0.003612922523554028 -0.0003656712951581224 -0.00018011747035473908 -0.0003656712951581224 0.0036814355692288488" free_energy=-1139.00854805 energy=-1138.97450273 pbc="T T T"
Cr       3.00768000       9.02765000       0.01800000      -0.00024300       0.00021600      -0.00038400
Cr       9.02274000       3.03469000       3.05410000       0.00026000       0.00053300       0.00019500
Ti       3.01535000       6.02400000       9.01822000      -0.00026700      -0.00019600       0.00006700
Ti       9.02545000      12.04909000       9.03100000      -0.00014300      -0.00015600       0.00047500
V        0.02389000      12.03645000       0.03609000       0.00057400       0.00024400       0.00018100
V        1.50893000       1.48373000       1.52205000       0.00023100       0.00058400      -0.00002400
V       12.00623000      12.04056000       3.02116000       0.00054400      -0.00002000       0.00050200
V        1.50235000       1.50162000       4.49465000       0.00001600       0.00055300      -0.00009000
V       12.03837000      -0.00134000       5.99128000       0.00006300      -0.00008600       0.00035500
V        1.43761000       1.58143000       7.43523000       0.00004300       0.00036000       0.00049500
V       12.01042000      12.04183000       9.03538000       0.00050100       0.00034700       0.00051400
V        1.47622000       1.56237000      10.61148000       0.00010800       0.00054400       0.00049600
V        0.01451000       3.01485000       0.02024000       0.00034900      -0.00002200      -0.00063800
V        1.53327000       4.53195000       1.50239000      -0.00007200      -0.00003400      -0.00043100
V        0.02465000       3.00646000       3.03674000      -0.00013800       0.00046700      -0.00004900
V        1.49717000       4.53140000       4.50057000      -0.00043200       0.00017200      -0.00066500
V       12.02241000       3.01625000       6.00715000      -0.00030000       0.00038800      -0.00011600
V        1.46833000       4.49298000       7.49820000      -0.00052800      -0.00003000      -0.00045900
V       12.04144000       3.02163000       9.03048000       0.00010900       0.00026600       0.00003100
V        1.47803000       4.50791000      10.57158000      -0.00040400      -0.00015600      -0.00027100
V        0.01856000       6.04508000       0.00452000       0.00019900       0.00038700      -0.00086500
V        1.53518000       7.55793000       1.46604000       0.00012000       0.00049200      -0.00042600
V       12.03998000       6.06780000       3.02519000      -0.00020300       0.00012400      -0.00066000
V        1.49396000       7.53717000       4.50234000      -0.00057900       0.00052100      -0.00071900
V       12.03984000       6.02563000       5.99837000      -0.00074300       0.00013400      -0.00082300
V        1.49234000       7.55263000       7.48826000      -0.00071200       0.00055700      -0.00072000
V       12.03537000       6.00937000       9.05083000      -0.00025700       0.00013900      -0.00060900
V        1.51051000       7.55668000      10.60047000      -0.00020100       0.00039800      -0.00029800
V       12.01581000       9.00914000       0.04322000       0.00060000      -0.00009200      -0.00026000
V        1.51221000      10.54808000       1.49488000       0.00057500      -0.00017000       0.00025300
V        0.11720000       9.05188000       3.01652000       0.00052200      -0.00005000      -0.00000200
V        1.49448000      10.58846000       4.49247000       0.00007800      -0.00037700       0.00002200
V       12.03461000       9.05904000       5.97928000      -0.00034000       0.00027300      -0.00036300
V        1.43410000      10.47785000       7.43240000       0.00009700      -0.00002100       0.00040600
V        0.01297000       9.02905000       9.04679000      -0.00002200      -0.00001300      -0.00024400
V        1.50471000      10.44462000      10.65328000       0.00017500       0.00003200       0.00056300
V        3.01511000       0.00085000       0.05355000      -0.00000900       0.00021500      -0.00000900
V        4.51703000       1.49096000       1.51912000       0.00008200       0.00052100       0.00033400
V        3.01608000       0.00527000       2.99846000      -0.00002900       0.00005500       0.00008900
V        4.52279000       1.50740000       4.48574000       0.00011100       0.00034900       0.00016500
V        3.00991000      12.05669000       5.93866000      -0.00010300      -0.00003300       0.00084100
V        4.58845000       1.57985000       7.43046000       0.00020200       0.00029100       0.00078200
V        4.54727000       1.57122000      10.61425000      -0.00001600       0.00034400       0.00056700
V        3.01246000       3.01798000       0.01307000      -0.00011000       0.00022400      -0.00040800
V        4.50416000       4.53519000       1.49909000       0.00013800      -0.00033200      -0.00024600
V        3.01497000       3.01594000       2.99298000      -0.00007600       0.00033100      -0.00014200
V        4.52907000       4.53658000       4.49660000      -0.00001900      -0.00031500      -0.00051400
V        3.01291000       3.03378000       5.99295000      -0.00044600       0.00037400       0.00013300
V        4.56248000       4.49978000       7.49362000      -0.00018000      -0.00037700      -0.00018600
V        3.01226000       3.06881000       9.03137000      -0.00033200       0.00005200       0.00015800
V        4.54734000       4.51189000      10.57112000      -0.00014500      -0.00033700      -0.00021700
V        3.01171000       6.01813000      12.04674000      -0.00006400       0.00004800      -0.00054400
V        4.48392000       7.55428000       1.46130000       0.00003900       0.00021000      -0.00037100
V        3.01083000       6.04399000       3.00544000      -0.00003700       0.00001500      -0.00079600
V        4.53137000       7.53086000       4.49780000       0.00023400       0.00020500      -0.00046900
V        3.01456000       6.03841000       5.99067000      -0.00044700      -0.00006100      -0.00022000
V        4.56411000       7.55189000       7.48939000       0.00003300       0.00021100      -0.00021500
V        4.51369000       7.55472000      10.59901000       0.00000100       0.00006900      -0.00027800
V        4.50554000      10.54938000       1.49351000       0.00002600      -0.00036600       0.00032900
V        3.01122000       9.06308000       3.00585000      -0.00013900       0.00007400      -0.00026500
V        4.52339000      10.59095000       4.49459000       0.00006900      -0.00054900       0.00029000
V        3.01274000       9.03661000       5.98314000      -0.00012100       0.00002500       0.00007600
V        4.58244000      10.47672000       7.42812000       0.00018000      -0.00032600       0.00074500
V        3.01055000       8.96801000       9.02167000      -0.00008700       0.00006700       0.00027200
V        4.51136000      10.43937000      10.64934000       0.00025000      -0.00026400       0.00073400
V        5.98058000      12.04479000       0.03143000       0.00037000      -0.00012500       0.00042400
V        7.50763000       1.62480000       1.62621000       0.00029200       0.00070700       0.00077700
V        6.06031000      12.04932000       3.01098000       0.00018300      -0.00018600       0.00068200
V        7.54778000       1.52386000       4.53031000       0.00004100       0.00056200       0.00015200
V        6.02924000       0.00368000       5.98695000       0.00014500      -0.00028600       0.00099900
V        7.51900000       1.53627000       7.49176000      -0.00060100      -0.00002300       0.00081400
V        6.04701000      12.04328000       9.02958000      -0.00017000       0.00002600       0.00082000
V        7.39980000       1.61807000      10.51797000      -0.00001800      -0.00019800       0.00059200
V        6.01103000       3.03907000       0.02971000       0.00002500      -0.00007300      -0.00010900
V        7.50698000       4.55516000       1.53035000      -0.00017400      -0.00074600       0.00004300
V        6.00244000       3.02673000       3.02038000       0.00040400       0.00033100       0.00012400
V        7.54442000       4.53427000       4.51169000      -0.00003400      -0.00074900      -0.00067600
V        6.04460000       3.02631000       5.99866000       0.00013000       0.00003300       0.00024400
V        7.54264000       4.52944000       7.52911000      -0.00083500      -0.00044200      -0.00033800
V        6.02376000       3.03304000       9.02608000      -0.00046100      -0.00030000       0.00031400
V        7.53000000       4.53944000      10.54932000      -0.00087600      -0.00050900       0.00003700
V        6.00494000       6.03238000       0.01141000      -0.00011100      -0.00017500      -0.00036500
V        7.57373000       7.56355000       1.57846000      -0.00039300      -0.00010500      -0.00017200
V        6.02447000       6.06272000       3.00364000       0.00051800      -0.00033100      -0.00045100
V        7.59996000       7.65051000       4.42769000      -0.00018900      -0.00009400      -0.00011500
V        6.03379000       6.04371000       6.00373000       0.00035400      -0.00026300      -0.00021000
V        7.50562000       7.51095000       7.51069000      -0.00044400       0.00006300      -0.00025800
V        6.04041000       6.03023000       9.03636000      -0.00035300      -0.00024500      -0.00046800
V        7.50803000       7.48538000      10.55445000      -0.00059600       0.00004700      -0.00047000
V        6.04329000       9.00801000       0.03796000      -0.00004100      -0.00041100       0.00002900
V        7.59864000      10.30092000       1.75873000      -0.00012600      -0.00039600       0.00067800
V        5.89955000       9.04683000       3.01738000       0.00006500      -0.00053200       0.00015700
V        7.59427000      10.50386000       4.48715000      -0.00001500      -0.00065700       0.00068600
V        6.03355000       9.04983000       5.98496000       0.00055500      -0.00031200       0.00015800
V        7.49194000      10.54530000       7.47372000      -0.00018400      -0.00070100       0.00084600
V        6.01311000       9.01490000       9.03071000       0.00002900      -0.00034400       0.00006100
V        7.38358000      10.42240000      10.50498000       0.00004300      -0.00024700       0.00021300
V       10.56835000       1.56244000       1.61703000       0.00026200       0.00092600       0.00055600
V       10.52351000       1.51504000       4.53578000       0.00002900       0.00069200       0.00002400
V        9.03592000       0.00016000       6.01811000       0.00011900      -0.00028500       0.00044300
V       10.54967000       1.52637000       7.49788000       0.00006800       0.00023600       0.00044500
V       10.65883000       1.60214000      10.52467000       0.00007800       0.00024200       0.00042600
V        9.01909000       3.04423000       0.00274000       0.00003100      -0.00011200       0.00005900
V       10.50754000       4.52801000       4.54103000      -0.00028000      -0.00018800      -0.00090500
V        9.03123000       3.03094000       6.04863000      -0.00013800       0.00010500      -0.00022900
V       10.51411000       4.49638000       7.53496000      -0.00006000      -0.00003400      -0.00074600
V        9.03032000       3.00615000       9.04500000      -0.00028100      -0.00001300       0.00007100
V       10.52643000       4.53104000      10.53145000       0.00020800      -0.00020600      -0.00009400
V        9.01324000       6.04513000       0.02668000      -0.00001100       0.00008300      -0.00029000
V       10.46447000       7.59432000       1.59126000       0.00079500       0.00009900      -0.00029200
V        9.00676000       5.99284000       3.04069000       0.00006100      -0.00015000      -0.00071700
V       10.44010000       7.65481000       4.40858000      -0.00006200       0.00055400      -0.00063300
V        9.01062000       6.04616000       5.98626000      -0.00036000      -0.00035100      -0.00075400
V        9.01540000       6.00539000       9.04395000      -0.00012800      -0.00023000      -0.00084300
V       10.54533000       7.48648000      10.57767000       0.00027100       0.00029400      -0.00033300
V        9.02950000       8.95560000      11.95680000       0.00024100      -0.00044300      -0.00029500
V       10.48014000      10.33397000       1.73955000       0.00079800      -0.00073900       0.00104600
V        9.03695000       0.08189000       3.09738000       0.00040700       0.00007600       0.00109900
V       10.46222000      10.49415000       4.48317000       0.00066100      -0.00049100       0.00064600
V        9.01244000       9.06658000       6.10327000      -0.00001800      -0.00021500      -0.00022500
V       10.57024000      10.57024000       7.47736000       0.00017000      -0.00047300       0.00039100
V        9.01993000       9.03548000       9.04879000       0.00009800      -0.00020700      -0.00026500
V       10.67196000      10.43062000      10.51252000       0.00032600      -0.00005500       0.00001000
W       10.53198000       4.54046000       1.53323000      -0.00031300      -0.00050700       0.00028100
W       10.52912000       7.51784000       7.51751000       0.00045100       0.00055300      -0.00010600
Zr       3.01134000      12.04246000       9.00008000       0.00009900       0.00028600       0.00041500
Zr       9.01121000      11.99466000       0.07283000       0.00036200       0.00020200      -0.00047500
