127
Lattice="11.704399053409029 0.0008083397555309771 0.0004642799452775858 0.0008084012019151772 11.705913887344366 0.0012991646523473062 0.0004642776101685465 0.0012990500267091095 11.706916941412393" Properties=species:S:1:pos:R:3:energies:R:1:forces:R:3 energy=-1135.9214706026578 free_energy=-1135.9214706026578 stress="-0.0021062736024915663 -2.6489946856736724e-05 0.00010038136041620528 -2.6489946856736724e-05 -0.0017506840920672071 -0.00017088249400472506 0.00010038136041620528 -0.00017088249400472506 -0.002404810365776767" pbc="T T T"
Cr       2.92935526       8.77694027       0.02474562      -7.26526535      -0.00001969       0.00135101      -0.00134626
Cr       8.77839826       2.94004872       2.95059620      -7.53876483      -0.00045270       0.00084005      -0.00089943
Ti       2.93007492       5.84884065       8.77066902      -7.96724843       0.00075229       0.00125086       0.00131612
Ti       8.77675435      -0.01151829       8.75595352      -7.93675453       0.00034877      -0.00225121       0.00539149
V        0.00860027      -0.00587870       0.00652076      -9.01246918      -0.00067661      -0.00003967      -0.00059478
V        1.46425194       1.46874590       1.46844048      -8.99462007       0.00023781       0.00111410       0.00035526
V        0.00674469      -0.00605937       2.92998441      -8.98662340       0.00129771       0.00111650       0.00138121
V        1.46100005       1.46645043       4.39092567      -8.92842231      -0.00053391       0.00027603      -0.00016599
V       -0.00310274       0.00026384       5.84627357      -8.94730984      -0.00107161      -0.00095956      -0.00041005
V        1.46375270       1.46480360       7.31420655      -8.97215925      -0.00030737      -0.00058316       0.00122787
V       -0.01966772      -0.00781204       8.77730406      -8.93912390       0.00029148       0.00037989      -0.00104201
V        1.46219355       1.47001521      10.23770315      -8.96841642       0.00038676       0.00036649       0.00043291
V        0.01227687       2.93866087       0.00198659      -9.39515609      -0.00161660      -0.00001442      -0.00014234
V        1.48026623       4.38981298       1.46577641      -9.21321159      -0.00053558       0.00044424       0.00000772
V        0.00473926       2.93085150       2.92717997      -9.47511311      -0.00161397       0.00134524      -0.00150020
V        1.46691464       4.39157351       4.39265975      -8.99464873      -0.00146315       0.00121671      -0.00091961
V        0.00169390       2.93006626       5.85241746      -8.98031743      -0.00064321       0.00063239       0.00030118
V        1.46563941       4.39368401       7.31833597      -8.99404357      -0.00109476       0.00074733       0.00094418
V       -0.00159296       2.93449421       8.77955367      -8.96146094      -0.00114933       0.00005449       0.00159140
V        1.46573848       4.39311507      10.23614920      -8.99538406       0.00042603      -0.00062943       0.00051195
V       -0.01692005       5.85617216       0.00373957      -9.44391228      -0.00010705      -0.00044755      -0.00056439
V        1.46245292       7.30885448       1.48022940      -9.08487182       0.00144456       0.00162859      -0.00202609
V       -0.00129263       5.86087544       2.92092344      -9.40914646      -0.00022223      -0.00075705       0.00000967
V        1.46195793       7.31336847       4.39138973      -8.99793897      -0.00040542      -0.00034822      -0.00045928
V        0.00310392       5.85026790       5.84901233      -9.35531229      -0.00212813       0.00171443      -0.00014419
V        1.46260240       7.30684785       7.31477259      -9.20347321      -0.00045650      -0.00050785      -0.00094260
V        0.00008096       5.85657751       8.78952696      -9.32463163       0.00069994      -0.00114146      -0.00251429
V        1.46466512       7.30255319      10.23726015      -9.08736595       0.00225673       0.00176427       0.00074468
V        0.05085565       8.77358027       0.00011433      -8.88063513       0.00597518      -0.00144390      -0.00052051
V        1.46771139      10.24736438       1.47837144      -9.01386428       0.00186194      -0.00133163      -0.00231082
V       -0.00751906       8.77896769       2.92567268      -8.98952960      -0.00114516       0.00026569      -0.00151398
V        1.46055741      10.24390043       4.39491698      -8.92909060       0.00010246       0.00040760      -0.00020904
V        0.00831091       8.78088433       5.84894740      -9.33592474      -0.00138398       0.00050501      -0.00136588
V        1.46649167      10.24945277       7.31482318      -9.03480407      -0.00020332      -0.00026419      -0.00109222
V       -0.01134090       8.77438508       8.78645651      -9.43903013       0.00052108      -0.00016906      -0.00128158
V        1.46504174      10.25501322      10.23489452      -9.04653437       0.00170756      -0.00219181       0.00163368
V        2.92672144       0.01390714       0.01904729      -9.05717874      -0.00016875      -0.00083284       0.00031853
V        4.38917287       1.46922031       1.46741099      -8.92792504      -0.00047282       0.00085012       0.00029163
V        2.92609802       0.00399684       2.93187099      -8.99053543      -0.00030862      -0.00052327      -0.00090644
V        4.38733741       1.46430225       4.39307760      -8.92617089       0.00023152       0.00023143       0.00036409
V        2.92556043       0.00423874       5.83094275      -8.93792846      -0.00001197       0.00004868       0.00023213
V        4.38611956       1.46381967       7.31471574      -8.97067519       0.00065071      -0.00049846       0.00156232
V        4.39082293       1.46981420      10.23796731      -8.96770509       0.00003972       0.00066868       0.00047613
V        2.92567252       2.92860316       0.00527319      -8.96084601       0.00021711       0.00107790       0.00017834
V        4.38716196       4.39023968       1.46560044      -8.93851024      -0.00009482       0.00007888       0.00043042
V        2.92539332       2.92626369       2.92999526      -8.93300841      -0.00021488       0.00091044      -0.00033614
V        4.38696961       4.39207429       4.39244232      -8.92931915       0.00048734       0.00096754      -0.00023425
V        2.92630418       2.92962726       5.84646961      -8.95211531      -0.00015400       0.00058170       0.00076829
V        4.38666800       4.39591675       7.31923267      -8.92766233       0.00136271       0.00079230       0.00170394
V        2.92696399       2.94605596       8.77713489      -8.92066156       0.00031692       0.00081869       0.00116037
V        4.38791579       4.39488913      10.23646453      -8.92989788       0.00071351       0.00002850       0.00081925
V        2.92608010       5.84178838       0.00226469      -9.01519704       0.00048343       0.00143360      -0.00003308
V        4.39110304       7.30752996       1.47886793      -9.01534774      -0.00220317       0.00179760      -0.00127774
V        2.92630299       5.85078135       2.93326947      -8.97587452      -0.00051861       0.00162153      -0.00148092
V        4.39097784       7.31386548       4.39417217      -8.93237789      -0.00058632      -0.00051942       0.00003242
V        2.92592901       5.85112140       5.85434475      -8.90658234      -0.00021446       0.00034959       0.00011749
V        4.38993417       7.30738364       7.31656026      -8.92853080       0.00041512      -0.00047256      -0.00038556
V        4.38992456       7.30430325      10.23447678      -9.02024113      -0.00091024       0.00197716       0.00176115
V        4.38616987      10.24730952       1.47832011      -9.01205652      -0.00234239      -0.00115466      -0.00184477
V        2.92734435       8.78038813       2.94478829      -9.03884820      -0.00061478       0.00035764      -0.00139610
V        4.39148267      10.24341191       4.39574298      -8.93049044      -0.00065123       0.00046391       0.00043646
V        2.92472903       8.77592160       5.84914116      -8.95979025      -0.00025070      -0.00079325      -0.00064238
V        4.38877846      10.24670364       7.31375343      -8.97324111       0.00040290      -0.00006811      -0.00056340
V        2.92591197       8.76446662       8.77245504      -9.03529597       0.00049579      -0.00061949       0.00039966
V        4.38986232      10.25421306      10.23330815      -9.04756707      -0.00152652      -0.00184290       0.00135344
V        5.84405727      -0.00649025       0.00775096      -9.01539400       0.00089340       0.00030482      -0.00029382
V        7.30794043       1.45425317       1.46093468      -9.12467522       0.00130397      -0.00017326      -0.00110252
V        5.84524659      -0.00867513       2.92922353      -8.98896362      -0.00114920       0.00103097       0.00132818
V        7.30915571       1.46458644       4.39415838      -9.03048867      -0.00025265       0.00106035       0.00073429
V        5.85321753       0.00270273       5.84441822      -8.94582740       0.00112572      -0.00097551       0.00040631
V        7.31037298       1.46931490       7.31466495      -8.91811316      -0.00023252       0.00030781      -0.00065015
V        5.87129035      -0.00567484       8.77805292      -8.93905551       0.00026065       0.00031645      -0.00078599
V        7.31800131       1.45922014      10.24825541      -8.97434149       0.00195972      -0.00090599       0.00196033
V        5.84077378       2.93586366       0.00004549      -8.97404619       0.00194198       0.00013981       0.00015007
V        7.29446072       4.38997720       1.46873945      -9.27758259       0.00209945      -0.00040046      -0.00258576
V        5.84026592       2.92715960       2.93063376      -9.03519189       0.00117584       0.00075793      -0.00109852
V        7.30835707       4.39666411       4.40123108      -9.08729049      -0.00003319      -0.00012906       0.00012198
V        5.84924351       2.92977570       5.85475912      -8.98220813       0.00062733       0.00061031       0.00110687
V        7.31403825       4.39551300       7.31839474      -8.99800728       0.00043604      -0.00020169       0.00080360
V        5.85421777       2.93367534       8.77865751      -8.96378672       0.00188728       0.00058412       0.00223756
V        7.30898559       4.38920668      10.23357732      -8.97251998       0.00236777      -0.00091528       0.00288428
V        5.86802118       5.86119655      -0.00014395      -9.00792933       0.00037135      -0.00005301       0.00078037
V        7.34877423       7.35276889       1.43446322      -8.81170480      -0.00251119      -0.00058368       0.00200069
V        5.85486099       5.86052770       2.92341921      -8.98175298      -0.00108070      -0.00059843       0.00145670
V        7.31018192       7.31185726       4.39815865      -8.98120265       0.00125282       0.00158676       0.00112697
V        5.85487429       5.85301169       5.85365325      -8.94105844       0.00141643       0.00128694       0.00034583
V        7.31224599       7.31047172       7.31139422      -9.19332484       0.00159939       0.00156919      -0.00054245
V        5.85883249       5.85987157       8.78660151      -8.91151841      -0.00009529      -0.00095181      -0.00032298
V        7.35872385       7.35009219      10.27718438      -8.81086049      -0.00074700      -0.00025272      -0.00090176
V        5.80352436       8.77423283       0.00178508      -8.88386296      -0.00688618      -0.00143562       0.00009126
V        7.34733634      10.21455419       1.43643313      -8.77592514      -0.00128718       0.00105752       0.00157505
V        5.86049299       8.77992379       2.92544291      -8.99241297      -0.00007896       0.00030371       0.00004150
V        7.30519376      10.24375403       4.40029097      -8.91331467       0.00115860      -0.00185182       0.00121272
V        5.84903587       8.77637761       5.85142610      -8.92146043       0.00153006       0.00006928      -0.00033966
V        7.30477563      10.24165497       7.30479806      -8.96825882       0.00152496      -0.00146374      -0.00111763
V        5.86838087       8.77447484       8.78558990      -9.02224339       0.00019223       0.00012383      -0.00017493
V        7.35527290      10.21318626      10.27204092      -8.78902641      -0.00054995       0.00088720      -0.00039487
V       10.24798952       1.44554405       1.45993851      -9.32632643      -0.00115606       0.00039189      -0.00092024
V        8.77658340      -0.01561509       2.94290403      -9.05909788      -0.00013579       0.00010550       0.00072270
V       10.24684793       1.46302075       4.39556068      -9.09013144       0.00028178       0.00135979       0.00027728
V        8.77803725       0.00473959       5.85467130      -8.96840775       0.00013965      -0.00114883      -0.00040370
V       10.24718385       1.46928615       7.31513165      -8.91960006       0.00053689       0.00015076      -0.00113727
V       10.24065230       1.45894252      10.24594089      -9.03863271      -0.00138392      -0.00072443       0.00202501
V        8.78099463       2.94677720       0.00166848      -9.49871338      -0.00070915      -0.00491265      -0.00015636
V       10.24979047       4.39672772       4.41090317      -9.36889976      -0.00038714       0.00041446      -0.00053145
V        8.77816374       2.92956196       5.86413227      -9.07318418       0.00002778       0.00072523       0.00026937
V       10.24471948       4.39473820       7.31955489      -9.21976187      -0.00008583       0.00004959       0.00035038
V        8.77884019       2.93372605       8.76730535      -8.91575282       0.00025295      -0.00074388       0.00178682
V       10.25196938       4.38935585      10.22143501      -9.25621601      -0.00254310      -0.00085597       0.00183611
V        8.78339459       5.79458607       0.00058371      -9.22901228       0.00009830      -0.00386915      -0.00034302
V       10.20763419       7.36972543       1.43130076      -9.00462518       0.00054286       0.00004434      -0.00025233
V        8.78258525       5.86318695       2.91813078      -9.48652870      -0.00064013       0.00019760      -0.00087222
V       10.24828025       7.31650533       4.39782601      -9.26629598      -0.00210897       0.00146412       0.00023423
V        8.77598986       5.84778233       5.85318495      -9.39239600      -0.00047634       0.00109099      -0.00044197
V        8.77732719       5.86345831       8.79272830      -9.34969608       0.00062145      -0.00042029       0.00028928
V       10.20789669       7.34649533      10.26845300      -9.07263474       0.00354598      -0.00272297      -0.00373751
V       10.20985522      10.21232795       1.43701498      -8.78024673       0.00129144       0.00145423       0.00153607
V        8.77718172       8.77757244       2.99421554      -8.76919748       0.00019634      -0.00146534       0.00330069
V       10.25267527      10.24497680       4.39976529      -8.98078293      -0.00140662      -0.00162754       0.00092225
V        8.77614632       8.78053176       5.85041957      -9.38235308      -0.00114160       0.00161533      -0.00081769
V       10.25207873      10.24080473       7.30463462      -9.18022956      -0.00206236      -0.00166758      -0.00107480
V        8.77841443       8.78106523       8.71514895      -9.16079642       0.00107087      -0.00148286      -0.00576255
V       10.20170525      10.20996575      10.27551496      -8.84939682       0.00047088      -0.00015403      -0.00101918
W       10.25818430       4.39595372       1.45987496      -6.78123406      -0.00171280      -0.00161872      -0.00170340
W       10.24566490       7.31574693       7.31128445      -6.65249539       0.00028531      -0.00064509      -0.00213124
Zr       2.92725648       0.01456036       8.76958681      -7.89103327       0.00017206      -0.00022092       0.00018041
Zr       8.77445385       0.05028389      -0.00588576      -7.72028322       0.00054178       0.00203984       0.00033177
