 vasp.6.4.2 20Jul23 (build Sep 20 2024 16:56:05) complex                         
 executed on              LinuxNV date 2024.12.10  14:20:31
 running    4 mpi-ranks, with    8 threads/rank, on    1 nodes
 distrk:  each k-point on    4 cores,    1 groups
 distr:  one band on NCORE=   1 cores,    4 groups
 OpenACC runtime initialized ...    4 GPUs detected


--------------------------------------------------------------------------------------------------------


 INCAR:
   ENCUT = 520.000000
   POTIM = 0.200000
   SIGMA = 0.200000
   EDIFF = 1.00e-06
   EDIFFG = -1.00e-02
   ALGO = Normal
   GGA = PE
   PREC = Accurate
   IBRION = 2
   ISIF = 2
   ISMEAR = 1
   LORBIT = 11
   NELM = 100
   NSW = -1
   NSIM = 32
   LCHARG = .TRUE.
   LWAVE = .FALSE.
   LREAL = .FALSE.

 POTCAR:    PAW_PBE V_pv 07Sep2000                
 POTCAR:    PAW_PBE Cr_pv 02Aug2007               
 POTCAR:    PAW_PBE Ti_pv 07Sep2000               
 POTCAR:    PAW_PBE V_pv 07Sep2000                
   SHA256 =  1175d3c8cb4ffd1d150a520fa74fae5c3ec72c0849b5615a94a5372dd2cf07f7 V_pv/POTCAR           
   COPYR  = (c) Copyright 07Sep2000 Georg Kresse                                                    
   COPYR  = This file is part of the software VASP. Any use, copying, and all other rights are regul
   COPYR  = If you do not have a valid VASP license, you may not use, copy or distribute this file. 
   VRHFIN =V: p6 d4 s1                                                                              
   LEXCH  = PE                                                                                      
   EATOM  =  1321.6206 eV,   97.1364 Ry                                                             
                                                                                                    
   TITEL  = PAW_PBE V_pv 07Sep2000                                                                  
   LULTRA =        F    use ultrasoft PP ?                                                          
   IUNSCR =        1    unscreen: 0-lin 1-nonlin 2-no                                               
   RPACOR =    1.700    partial core radius                                                         
   POMASS =   50.941; ZVAL   =   11.000    mass and valenz                                          
   RCORE  =    2.300    outmost cutoff radius                                                       
   RWIGS  =    2.300; RWIGS  =    1.217    wigner-seitz radius (au A)                               
   ENMAX  =  263.673; ENMIN  =  197.755 eV                                                          
   RCLOC  =    1.779    cutoff for local pot                                                        
   LCOR   =        T    correct aug charges                                                         
   LPAW   =        T    paw PP                                                                      
   EAUG   =  598.473                                                                                
   DEXC   =    0.000                                                                                
   RMAX   =    2.359    core radius for proj-oper                                                   
   RAUG   =    1.300    factor for augmentation sphere                                              
   RDEP   =    2.430    radius for radial grids                                                     
   RDEPT  =    1.700    core radius for aug-charge                                                  
                                                                                                    
   Atomic configuration                                                                             
    8 entries                                                                                       
     n  l   j            E        occ.                                                              
     1  0  0.50     -5360.7193   2.0000                                                             
     2  0  0.50      -598.4546   2.0000                                                             
     2  1  1.50      -499.0155   6.0000                                                             
     3  0  0.50       -66.5711   2.0000                                                             
     3  1  1.50       -40.5282   6.0000                                                             
     3  2  2.50        -2.4291   4.0000                                                             
     4  0  0.50        -3.8743   1.0000                                                             
     4  3  2.50        -1.3606   0.0000                                                             
   Description                                                                                      
     l       E           TYP  RCUT    TYP  RCUT                                                     
     1    -40.5282431     23  2.000                                                                 
     1      5.4423304     23  2.000                                                                 
     2     -2.4290905     23  2.300                                                                 
     2     -1.0472488     23  2.300                                                                 
     0     -3.8742754     23  2.300                                                                 
     0     27.2116520     23  2.300                                                                 
  local pseudopotential read in
  partial core-charges read in
  partial kinetic energy density read in
  atomic valenz-charges read in
  non local Contribution for L=            1  read in
    real space projection operators read in
  non local Contribution for L=            1  read in
    real space projection operators read in
  non local Contribution for L=            2  read in
    real space projection operators read in
  non local Contribution for L=            2  read in
    real space projection operators read in
  non local Contribution for L=            0  read in
    real space projection operators read in
  non local Contribution for L=            0  read in
    real space projection operators read in
    PAW grid and wavefunctions read in
 
   number of l-projection  operators is LMAX  =            6
   number of lm-projection operators is LMMAX =           18
 
 POTCAR:    PAW_PBE Cr_pv 02Aug2007               
   SHA256 =  c9a7df34d3cdbacf1090e328ef39c0b420964e11c23f63548d1ac9dd218cdba0 Cr_pv/POTCAR          
   COPYR  = (c) Copyright 02Aug2007 Georg Kresse                                                    
   COPYR  = This file is part of the software VASP. Any use, copying, and all other rights are regul
   COPYR  = If you do not have a valid VASP license, you may not use, copy or distribute this file. 
   VRHFIN =Cr : p6d5s1                                                                              
   LEXCH  = PE                                                                                      
   EATOM  =  1647.9177 eV,  121.1185 Ry                                                             
                                                                                                    
   TITEL  = PAW_PBE Cr_pv 02Aug2007                                                                 
   LULTRA =        F    use ultrasoft PP ?                                                          
   IUNSCR =        1    unscreen: 0-lin 1-nonlin 2-no                                               
   RPACOR =    2.080    partial core radius                                                         
   POMASS =   51.996; ZVAL   =   12.000    mass and valenz                                          
   RCORE  =    2.300    outmost cutoff radius                                                       
   RWIGS  =    2.500; RWIGS  =    1.323    wigner-seitz radius (au A)                               
   ENMAX  =  265.681; ENMIN  =  199.261 eV                                                          
   ICORE  =        3    local potential                                                             
   LCOR   =        T    correct aug charges                                                         
   LPAW   =        T    paw PP                                                                      
   EAUG   =  519.424                                                                                
   DEXC   =    0.000                                                                                
   RMAX   =    2.356    core radius for proj-oper                                                   
   RAUG   =    1.300    factor for augmentation sphere                                              
   RDEP   =    2.447    radius for radial grids                                                     
   RDEPT  =    1.882    core radius for aug-charge                                                  
                                                                                                    
   Atomic configuration                                                                             
    8 entries                                                                                       
     n  l   j            E        occ.                                                              
     1  0  0.50     -5880.4963   2.0000                                                             
     2  0  0.50      -667.0865   2.0000                                                             
     2  1  1.50      -560.6250   6.0000                                                             
     3  0  0.50       -73.9860   2.0000                                                             
     3  1  1.50       -45.4378   6.0000                                                             
     3  2  2.50        -2.9137   5.0000                                                             
     4  0  0.50        -4.0071   1.0000                                                             
     4  3  2.50        -1.3606   0.0000                                                             
   Description                                                                                      
     l       E           TYP  RCUT    TYP  RCUT                                                     
     1    -45.4377911     23  2.000                                                                 
     1      1.3605826     23  2.000                                                                 
     2     -2.9136672     23  2.300                                                                 
     2     -4.2742498     23  2.300                                                                 
     0     -4.0071320     23  2.300                                                                 
     0      9.4498803     23  2.300                                                                 
     3      2.7211652     23  2.300                                                                 
  local pseudopotential read in
  partial core-charges read in
  partial kinetic energy density read in
  atomic valenz-charges read in
  non local Contribution for L=            1  read in
    real space projection operators read in
  non local Contribution for L=            1  read in
    real space projection operators read in
  non local Contribution for L=            2  read in
    real space projection operators read in
  non local Contribution for L=            2  read in
    real space projection operators read in
  non local Contribution for L=            0  read in
    real space projection operators read in
  non local Contribution for L=            0  read in
    real space projection operators read in
    PAW grid and wavefunctions read in
 
   number of l-projection  operators is LMAX  =            6
   number of lm-projection operators is LMMAX =           18
 
 POTCAR:    PAW_PBE Ti_pv 07Sep2000               
   SHA256 =  f757a1b2c6d082f4c628fa3d987464a8763bf92e53844ac0500b0e2ddc9ce5c0 Ti_pv/POTCAR          
   COPYR  = (c) Copyright 07Sep2000 Georg Kresse                                                    
   COPYR  = This file is part of the software VASP. Any use, copying, and all other rights are regul
   COPYR  = If you do not have a valid VASP license, you may not use, copy or distribute this file. 
   VRHFIN =Ti: d3 s1                                                                                
   LEXCH  = PE                                                                                      
   EATOM  =  1042.5995 eV,   76.6289 Ry                                                             
                                                                                                    
   TITEL  = PAW_PBE Ti_pv 07Sep2000                                                                 
   LULTRA =        F    use ultrasoft PP ?                                                          
   IUNSCR =        1    unscreen: 0-lin 1-nonlin 2-no                                               
   RPACOR =    2.200    partial core radius                                                         
   POMASS =   47.880; ZVAL   =   10.000    mass and valenz                                          
   RCORE  =    2.500    outmost cutoff radius                                                       
   RWIGS  =    2.500; RWIGS  =    1.323    wigner-seitz radius (au A)                               
   ENMAX  =  222.335; ENMIN  =  166.751 eV                                                          
   RCLOC  =    1.701    cutoff for local pot                                                        
   LCOR   =        T    correct aug charges                                                         
   LPAW   =        T    paw PP                                                                      
   EAUG   =  482.848                                                                                
   DEXC   =    0.000                                                                                
   RMAX   =    2.564    core radius for proj-oper                                                   
   RAUG   =    1.300    factor for augmentation sphere                                              
   RDEP   =    2.538    radius for radial grids                                                     
   RDEPT  =    1.952    core radius for aug-charge                                                  
                                                                                                    
   Atomic configuration                                                                             
    8 entries                                                                                       
     n  l   j            E        occ.                                                              
     1  0  0.50     -4865.3608   2.0000                                                             
     2  0  0.50      -533.1368   2.0000                                                             
     2  1  1.50      -440.5031   6.0000                                                             
     3  0  0.50       -59.3186   2.0000                                                             
     3  1  1.50       -35.7012   6.0000                                                             
     3  2  2.50        -1.9157   3.0000                                                             
     4  0  0.50        -3.7291   1.0000                                                             
     4  3  2.50        -1.3606   0.0000                                                             
   Description                                                                                      
     l       E           TYP  RCUT    TYP  RCUT                                                     
     1    -35.7012140     23  2.300                                                                 
     1     -1.3605826     23  2.300                                                                 
     2     -1.9156996     23  2.500                                                                 
     2     -0.4063033     23  2.500                                                                 
     0     -3.7290856     23  2.500                                                                 
     0     20.4087390     23  2.500                                                                 
  local pseudopotential read in
  partial core-charges read in
  partial kinetic energy density read in
  atomic valenz-charges read in
  non local Contribution for L=            1  read in
    real space projection operators read in
  non local Contribution for L=            1  read in
    real space projection operators read in
  non local Contribution for L=            2  read in
    real space projection operators read in
  non local Contribution for L=            2  read in
    real space projection operators read in
  non local Contribution for L=            0  read in
    real space projection operators read in
  non local Contribution for L=            0  read in
    real space projection operators read in
    PAW grid and wavefunctions read in
 
   number of l-projection  operators is LMAX  =            6
   number of lm-projection operators is LMMAX =           18
 
 -----------------------------------------------------------------------------
|                                                                             |
|               ----> ADVICE to this user running VASP <----                  |
|                                                                             |
|     You have a (more or less) 'large supercell' and for larger cells it     |
|     might be more efficient to use real-space projection operators.         |
|     Therefore, try LREAL= Auto in the INCAR file.                           |
|     Mind: For very accurate calculation, you might also keep the            |
|     reciprocal projection scheme (i.e. LREAL=.FALSE.).                      |
|                                                                             |
 -----------------------------------------------------------------------------

  PAW_PBE V_pv 07Sep2000                :
 energy of atom  1       EATOM=-1321.6206
 kinetic energy error for atom=    0.0054 (will be added to EATOM!!)
  PAW_PBE Cr_pv 02Aug2007               :
 energy of atom  2       EATOM=-1647.9177
 kinetic energy error for atom=    0.0057 (will be added to EATOM!!)
  PAW_PBE Ti_pv 07Sep2000               :
 energy of atom  3       EATOM=-1042.5995
 kinetic energy error for atom=    0.0019 (will be added to EATOM!!)
 
 
 POSCAR: V  Cr Ti
  positions in cartesian coordinates
  No initial velocities read in
 exchange correlation table for  LEXCH =        8
   RHO(1)=    0.500       N(1)  =     2000
   RHO(2)=  100.500       N(2)  =     4000
 


--------------------------------------------------------------------------------------------------------


 ion  position               nearest neighbor table
   1  0.004  0.996  0.002-   2 2.55   5 2.59 114 2.59  95 2.61  22 2.63  28 2.63 115 2.65  23 2.79
                            21 2.88 118 2.98
   2  0.996  0.001  0.196- 110 2.54   1 2.55  96 2.55   6 2.55   3 2.57  29 2.58  24 2.68  18 2.77
                            23 2.81
   3  0.999  0.996  0.393-   2 2.57 111 2.59  97 2.61   7 2.61  19 2.62   4 2.63  24 2.63  30 2.64

   4  0.004  1.000  0.598-  25 2.54  98 2.58   8 2.58  20 2.58  31 2.58 112 2.59   3 2.63   5 2.68
                           116 3.01
   5  0.000  0.004  0.804- 118 2.49 116 2.53   1 2.59  27 2.59 113 2.61  26 2.62  21 2.63   4 2.68
                            98 2.88 114 2.91 115 2.93
   6  0.005  0.201  0.198- 115 2.53   2 2.55   9 2.56  28 2.57  95 2.58  34 2.59  99 2.60   7 2.61
                           119 2.93
   7  0.003  0.200  0.398- 100 2.57  29 2.59  35 2.59  10 2.60   6 2.61   3 2.61  96 2.61   8 2.63

   8  0.006  0.200  0.601-  30 2.52   4 2.58  36 2.59  97 2.59  11 2.61 116 2.61   7 2.63 122 2.68

   9  0.001  0.396  0.197- 119 2.52 117 2.53   6 2.56  33 2.58  14 2.59  10 2.61  39 2.62 102 2.64
                           101 2.86 115 2.95
  10  0.005  0.402  0.401-  34 2.57  40 2.58  15 2.59  11 2.60 103 2.60   7 2.60   9 2.61  99 2.63

  11  0.003  0.399  0.599-  35 2.57 100 2.59  10 2.60   8 2.61  41 2.61 104 2.62  16 2.65  12 2.69
                           122 3.01
  12  0.009  0.400  0.809-  36 2.53  37 2.55 116 2.57 117 2.57  17 2.64 124 2.68  11 2.69 122 2.70
                            32 2.86 123 2.98
  13  0.004  0.608  0.004-  43 2.51  37 2.60 124 2.63  14 2.64  17 2.64 105 2.68 117 2.70  18 2.82
                           109 2.91  42 2.91
  14  0.998  0.596  0.201- 101 2.52  44 2.55  18 2.56  15 2.58   9 2.59  38 2.61  13 2.64 106 2.64
                           117 2.97
  15  0.003  0.601  0.402-  16 2.57  14 2.58  19 2.58  45 2.59  10 2.59  39 2.60 102 2.61 107 2.62

  16  0.004  0.604  0.601-  15 2.57  46 2.57  20 2.58  17 2.58 103 2.59  40 2.59 108 2.61  11 2.65

  17  0.002  0.596  0.796-  41 2.54 104 2.56  42 2.58  16 2.58 109 2.59  12 2.64  13 2.64  21 2.64
                           124 2.94
  18  0.972  0.775  0.178- 105 2.40  24 2.43 111 2.53  14 2.56  19 2.68   2 2.77 110 2.81  13 2.82
                            43 2.83 106 2.87
  19  0.996  0.796  0.398-  15 2.58 112 2.58  20 2.59 106 2.60  25 2.61  44 2.61   3 2.62  18 2.68

  20  0.002  0.802  0.602-  26 2.56 113 2.58   4 2.58  16 2.58  45 2.59  19 2.59 107 2.60  21 2.67

  21  0.001  0.802  0.807- 108 2.58  46 2.61  22 2.62 114 2.62   5 2.63  17 2.64  20 2.67 109 2.76
                            42 2.86   1 2.88
  22  0.208  0.009  0.995-  23 2.41  26 2.47  27 2.53  47 2.56  21 2.62  53 2.62   1 2.63  42 2.64
                            52 2.89
  23  0.206  0.004  0.178-  22 2.41  24 2.46  28 2.53  48 2.56  54 2.67  43 2.77  42 2.79   1 2.79
                             2 2.81  53 2.90
  24  0.170  0.969  0.341-  18 2.43  23 2.46   3 2.63  49 2.63  44 2.64  29 2.65  43 2.66   2 2.68

  25  0.198  0.999  0.596-  50 2.49   4 2.54  45 2.59  56 2.60  19 2.61  30 2.63  26 2.64
  26  0.198  0.999  0.799-  22 2.47  20 2.56  46 2.61   5 2.62  31 2.63  51 2.63  52 2.63  25 2.64

  27  0.200  0.203  0.003- 115 2.53  22 2.53  28 2.54  32 2.55   5 2.59  31 2.59  58 2.60  52 2.65
                           116 2.92
  28  0.204  0.204  0.200-  33 2.52  23 2.53  27 2.54  29 2.57   6 2.57  59 2.59  53 2.62   1 2.63
                           115 2.96
  29  0.199  0.196  0.393-  28 2.57   2 2.58   7 2.59  54 2.60  34 2.62  30 2.63  60 2.65  24 2.65

  30  0.198  0.201  0.597-   8 2.52  55 2.53  35 2.57  61 2.62  25 2.63  29 2.63   3 2.64  31 2.67

  31  0.195  0.201  0.801- 116 2.43   4 2.58  27 2.59  56 2.59  57 2.60  36 2.61  26 2.63  30 2.67

  32  0.196  0.397  0.998- 117 2.50 116 2.51  27 2.55  33 2.59  57 2.60  63 2.63  36 2.64  37 2.65
                            12 2.86 115 2.95
  33  0.201  0.397  0.200-  28 2.52 115 2.56  38 2.57  58 2.58   9 2.58  34 2.59  32 2.59  64 2.62
                           117 2.93
  34  0.201  0.400  0.400-  10 2.57  35 2.57  59 2.58  33 2.59   6 2.59  39 2.59  65 2.60  29 2.62

  35  0.201  0.400  0.598-  60 2.57  30 2.57  11 2.57  34 2.57   7 2.59  40 2.60  36 2.61  66 2.61

  36  0.201  0.403  0.799-  12 2.53  61 2.57  62 2.58   8 2.59  41 2.59  35 2.61  31 2.61  32 2.64
                           116 2.99
  37  0.201  0.603  0.000-  12 2.55  68 2.56  41 2.58  38 2.59  62 2.59  13 2.60  42 2.63  32 2.65
                            43 2.90 117 3.00
  38  0.195  0.591  0.193- 117 2.43  33 2.57  37 2.59  14 2.61  39 2.62  69 2.62  63 2.62  43 2.63

  39  0.201  0.600  0.399-  64 2.58  34 2.59  15 2.60  40 2.60  44 2.60  70 2.61  38 2.62   9 2.62

  40  0.202  0.601  0.600-  65 2.58  71 2.58  10 2.58  16 2.59  35 2.60  39 2.60  45 2.61  41 2.61

  41  0.200  0.602  0.801-  17 2.54  67 2.57  46 2.57  37 2.58  36 2.59  66 2.60  11 2.61  40 2.61

  42  0.191  0.801  0.996-  46 2.56  43 2.57  17 2.58  37 2.63  22 2.64  48 2.67  67 2.71  23 2.79
                            21 2.86  13 2.91
  43  0.203  0.797  0.196-  13 2.51  49 2.52  42 2.57  68 2.58  44 2.60  38 2.63  24 2.66  23 2.77
                            18 2.83  37 2.90
  44  0.195  0.796  0.393-  50 2.54  14 2.55  43 2.60  69 2.60  39 2.60  19 2.61  45 2.64  24 2.64

  45  0.201  0.801  0.600-  15 2.59  51 2.59  25 2.59  20 2.59  70 2.60  40 2.61  46 2.64  44 2.64
                            50 2.89
  46  0.199  0.800  0.802-  42 2.56  16 2.57  41 2.57  47 2.59  26 2.61  21 2.61  71 2.63  45 2.64

  47  0.402  1.000  0.997-  48 2.55  22 2.56  51 2.57  72 2.57  46 2.59  67 2.59  77 2.63  52 2.64

  48  0.406  0.002  0.195-  73 2.54  47 2.55  23 2.56  78 2.60  49 2.61  68 2.64  53 2.66  42 2.67

  49  0.393  0.996  0.388-  43 2.52  79 2.53  48 2.61  74 2.62  24 2.63  54 2.64  69 2.66  50 2.68
                           120 3.04
  50  0.386  0.993  0.591-  25 2.49  44 2.54  70 2.58  51 2.61  55 2.63 120 2.65  49 2.68 121 2.71
                            45 2.89
  51  0.401  0.001  0.799-  47 2.57  45 2.59  71 2.60  50 2.61  76 2.61  56 2.62  26 2.63  75 2.68
                           121 3.01
  52  0.402  0.203  0.998-  56 2.54  53 2.57  57 2.59  81 2.60  26 2.63  76 2.63  47 2.64  27 2.65
                            22 2.89  80 2.89
  53  0.408  0.209  0.200-  58 2.56  77 2.57  52 2.57  54 2.58  82 2.59  22 2.62  28 2.62  48 2.66
                            81 2.89  23 2.90
  54  0.402  0.205  0.395-  59 2.57  53 2.58  29 2.60  78 2.61  83 2.64  49 2.64  55 2.65  23 2.67
                            79 2.74
  55  0.390  0.197  0.592-  79 2.47  30 2.53  60 2.58  50 2.63  54 2.65  56 2.66  84 2.68
  56  0.394  0.200  0.799-  52 2.54  80 2.58  31 2.59  25 2.60  61 2.60  51 2.62  55 2.66 121 2.66

  57  0.398  0.401  0.999-  62 2.58  52 2.59  58 2.59  61 2.59  31 2.60  86 2.60  32 2.60  80 2.61

  58  0.402  0.404  0.200-  63 2.54  53 2.56  33 2.58  57 2.59  81 2.59  87 2.60  27 2.60  59 2.62

  59  0.402  0.404  0.402-  64 2.56  54 2.57  88 2.58  34 2.58  60 2.59  28 2.59  58 2.62  82 2.62

  60  0.399  0.400  0.599-  35 2.57  55 2.58  59 2.59  65 2.60  83 2.60  61 2.60  29 2.65  89 2.68

  61  0.399  0.402  0.800-  84 2.52  36 2.57  85 2.58  66 2.59  57 2.59  56 2.60  60 2.60  30 2.62

  62  0.400  0.601  0.999-  85 2.56  36 2.58  57 2.58  37 2.59  66 2.59  67 2.60  91 2.60  63 2.61

  63  0.400  0.599  0.200-  58 2.54  86 2.56  68 2.60  64 2.61  62 2.61  38 2.62  32 2.63  92 2.63

  64  0.400  0.601  0.401-  59 2.56  69 2.57  39 2.58  65 2.59  87 2.59  63 2.61  33 2.62  93 2.63

  65  0.400  0.601  0.600-  40 2.58  64 2.59  66 2.60  34 2.60  60 2.60  88 2.60  94 2.61  70 2.61

  66  0.400  0.602  0.800-  71 2.58  90 2.59  61 2.59  62 2.59  65 2.60  41 2.60  35 2.61  89 2.64

  67  0.399  0.799  0.997-  41 2.57  71 2.59  47 2.59  68 2.60  62 2.60  90 2.61  73 2.62  42 2.71

  68  0.402  0.799  0.197-  74 2.50  37 2.56  91 2.57  43 2.58  67 2.60  63 2.60  69 2.61  48 2.64

  69  0.395  0.794  0.394-  64 2.57  44 2.60  70 2.61  68 2.61  92 2.61  38 2.62  49 2.66 120 2.66

  70  0.401  0.802  0.599-  50 2.58  71 2.60  45 2.60  93 2.60  69 2.61  39 2.61  65 2.61  75 2.67
                           120 2.98
  71  0.401  0.800  0.798-  40 2.58  66 2.58  72 2.59  67 2.59  94 2.59  70 2.60  51 2.60  46 2.63

  72  0.600  0.999  0.998-  75 2.52  73 2.56  47 2.57  76 2.57  90 2.58  71 2.59  99 2.62  95 2.64
                           119 2.99
  73  0.602  0.001  0.197-  48 2.54  74 2.55  96 2.56  72 2.56  77 2.61  91 2.61 100 2.61  67 2.62

  74  0.594  0.993  0.388-  68 2.50  73 2.55  92 2.59  97 2.62  49 2.62  78 2.65 120 2.68 122 2.68
                            91 2.91
  75  0.610  0.001  0.808-  72 2.52  94 2.55 119 2.57 118 2.58  70 2.67  51 2.68 120 2.70 121 2.72
                            95 2.89 123 3.00
  76  0.604  0.199  0.001-  77 2.56  72 2.57 119 2.59  80 2.60 102 2.60  51 2.61  52 2.63 121 2.66

  77  0.603  0.203  0.200-  76 2.56  53 2.57  78 2.57  81 2.59  73 2.61 103 2.62  99 2.63  47 2.63

  78  0.603  0.203  0.398-  79 2.51  77 2.57 104 2.60  48 2.60  54 2.61  82 2.62 100 2.64  74 2.65
                           122 2.99
  79  0.578  0.201  0.580-  55 2.47  83 2.49  78 2.51  49 2.53 121 2.72 120 2.74  54 2.74 122 2.81
                           124 2.83
  80  0.596  0.395  0.998-  56 2.58  81 2.59  76 2.60  57 2.61 106 2.61  84 2.64  85 2.66 101 2.73
                            52 2.89 105 2.90 121 2.98
  81  0.601  0.402  0.201-  86 2.58  80 2.59  82 2.59  58 2.59  77 2.59  52 2.60 102 2.60 107 2.62
                           106 2.88  53 2.89
  82  0.605  0.407  0.402-  87 2.58  81 2.59  53 2.59  83 2.60 108 2.60  59 2.62  78 2.62 103 2.63

  83  0.602  0.407  0.602-  79 2.49  88 2.54  84 2.60  82 2.60  60 2.60 104 2.63  54 2.64 109 2.84
                           124 3.00
  84  0.594  0.406  0.798- 105 2.49  61 2.52  89 2.53  83 2.60  80 2.64 121 2.67  55 2.68 124 2.70

  85  0.597  0.601  1.000-  62 2.56 111 2.57 105 2.58  61 2.58  90 2.58  86 2.60  89 2.61  80 2.66

  86  0.598  0.600  0.201-  63 2.56 106 2.57  81 2.58  87 2.59  91 2.60  57 2.60  85 2.60 112 2.63

  87  0.601  0.604  0.402-  92 2.57  82 2.58  86 2.59  64 2.59  88 2.59 113 2.60  58 2.60 107 2.62

  88  0.601  0.601  0.601-  83 2.54  59 2.58  93 2.58  87 2.59  65 2.60  89 2.60 108 2.62 114 2.62

  89  0.606  0.607  0.804-  84 2.53  94 2.54 110 2.56  88 2.60  85 2.61  66 2.64 109 2.66  60 2.68

  90  0.601  0.800  0.998-  94 2.55  85 2.58  72 2.58  66 2.59  96 2.59  67 2.61  91 2.61 110 2.66

  91  0.600  0.800  0.199- 111 2.51  68 2.57  86 2.60  62 2.60  90 2.61  73 2.61  92 2.64  97 2.64
                            74 2.91
  92  0.601  0.802  0.403-  87 2.57  74 2.59 112 2.59  93 2.60  69 2.61  63 2.63  91 2.64  98 2.67
                           120 3.00
  93  0.603  0.802  0.604-  88 2.58  94 2.59  92 2.60  70 2.60 113 2.62 118 2.63  64 2.63 120 2.67
                           114 2.88
  94  0.601  0.800  0.802-  89 2.54  75 2.55 114 2.55  90 2.55  93 2.59  71 2.59  65 2.61  95 2.62
                           118 3.01
  95  0.805  0.003  1.000- 118 2.50 119 2.53   6 2.58  96 2.61   1 2.61  94 2.62 110 2.63  72 2.64
                            75 2.89 114 2.92 115 2.94
  96  0.799  1.000  0.198-   2 2.55  73 2.56  90 2.59  99 2.61 111 2.61  95 2.61   7 2.61  97 2.63

  97  0.803  0.003  0.402-   8 2.59 112 2.59 100 2.60   3 2.61  74 2.62  96 2.63  91 2.64  98 2.67
                           122 2.97
  98  0.811  0.002  0.610- 113 2.53 116 2.55   4 2.58 118 2.59  92 2.67  97 2.67 122 2.68 120 2.75
                             5 2.88 123 2.99
  99  0.804  0.201  0.196- 119 2.46 102 2.56 100 2.60   6 2.60  96 2.61  72 2.62  77 2.63  10 2.63

 100  0.805  0.202  0.396-   7 2.57 103 2.59  11 2.59  99 2.60  97 2.60  73 2.61  78 2.64 122 2.65

 101  0.810  0.396  0.008-  14 2.52 119 2.53 117 2.56 102 2.57 105 2.64 121 2.69 124 2.72  80 2.73
                             9 2.86 123 2.96
 102  0.801  0.400  0.204- 103 2.55  99 2.56 106 2.57 101 2.57  81 2.60  76 2.60  15 2.61   9 2.64
                           119 3.00
 103  0.805  0.403  0.402- 104 2.49 102 2.55  16 2.59 100 2.59  10 2.60 107 2.60  77 2.62  82 2.63

 104  0.802  0.407  0.594- 103 2.49 108 2.54  17 2.56  78 2.60  11 2.62  83 2.63 124 2.68 122 2.69

 105  0.789  0.587  0.996-  18 2.40  84 2.49  85 2.58 106 2.62 101 2.64 109 2.64  13 2.68 110 2.70
                            80 2.90 124 2.93
 106  0.795  0.594  0.202- 107 2.55 102 2.57  86 2.57  19 2.60  80 2.61 105 2.62  14 2.64 111 2.66
                            18 2.87  81 2.88
 107  0.802  0.602  0.403- 106 2.55 108 2.58  20 2.60 103 2.60 112 2.61  81 2.62  87 2.62  15 2.62

 108  0.805  0.606  0.604- 104 2.54 113 2.57 107 2.58  21 2.58  82 2.60  16 2.61  88 2.62 109 2.65

 109  0.822  0.626  0.819-  17 2.59 114 2.60 105 2.64 108 2.65  89 2.66 124 2.69  21 2.76 110 2.79
                            83 2.84  13 2.91
 110  0.806  0.801  1.000-   2 2.54  89 2.56  95 2.63 114 2.63  90 2.66 111 2.67 105 2.70 109 2.79
                            18 2.81
 111  0.793  0.798  0.199-  91 2.51  18 2.53  85 2.57 112 2.58   3 2.59  96 2.61 106 2.66 110 2.67

 112  0.801  0.802  0.402- 113 2.56  19 2.58 111 2.58   4 2.59  97 2.59  92 2.59 107 2.61  86 2.63

 113  0.803  0.802  0.600-  98 2.53 114 2.56 112 2.56 108 2.57  20 2.58  87 2.60   5 2.61  93 2.62
                           118 2.99
 114  0.799  0.810  0.798- 118 2.40  94 2.55 113 2.56   1 2.59 109 2.60  88 2.62  21 2.62 110 2.63
                            93 2.88   5 2.91  95 2.92
 115  0.004  0.200  0.003-   6 2.53  27 2.53  33 2.56 118 2.57 117 2.59 119 2.60 116 2.61   1 2.65
                           123 2.79   5 2.93  95 2.94  32 2.95   9 2.95  28 2.96
 116  0.008  0.200  0.803-  31 2.43  32 2.51 123 2.53   5 2.53  98 2.55  12 2.57 115 2.61   8 2.61
                            27 2.92  36 2.99   4 3.01 118 3.03 117 3.04 122 3.13
 117  0.009  0.403  0.007-  38 2.43  32 2.50 123 2.51   9 2.53 101 2.56  12 2.57 115 2.59  13 2.70
                            33 2.93  14 2.97  37 3.00 119 3.04 116 3.04 124 3.14
 118  0.808  1.000  0.807- 114 2.40   5 2.49  95 2.50 123 2.52 115 2.57  75 2.58  98 2.59  93 2.63
                             1 2.98 113 2.99  94 3.01 119 3.02 116 3.03
 119  0.805  0.200  0.007-  99 2.46   9 2.52 101 2.53  95 2.53 123 2.53  75 2.57  76 2.59 115 2.60
                             6 2.93  72 2.99 102 3.00 118 3.02 117 3.04 121 3.16
 120  0.596  0.003  0.597-  50 2.65  69 2.66  93 2.67  74 2.68  75 2.70  79 2.74  98 2.75 123 2.80
                           121 2.96  70 2.98 122 2.99  92 3.00  49 3.04
 121  0.598  0.201  0.796-  76 2.66  56 2.66  84 2.67 101 2.69  50 2.71  75 2.72  79 2.72 123 2.80
                           120 2.96  80 2.98  51 3.01 124 3.04 119 3.16
 122  0.798  0.200  0.597- 100 2.65  98 2.68   8 2.68  74 2.68 104 2.69  12 2.70 123 2.79  79 2.81
                            97 2.97  78 2.99 120 2.99  11 3.01 124 3.04 116 3.13
 123  0.820  0.201  0.818- 117 2.51 118 2.52 116 2.53 119 2.53 122 2.79 115 2.79 121 2.80 120 2.80
                           124 2.83 101 2.96  12 2.98  98 2.99  75 3.00
 124  0.803  0.407  0.800-  13 2.63  12 2.68 104 2.68 109 2.69  84 2.70 101 2.72  79 2.83 123 2.83
                           105 2.93  17 2.94  83 3.00 121 3.04 122 3.04 117 3.14
 
  LATTYP: Found a base centered monoclinic cell.
 ALAT       =    15.0482117230
 B/A-ratio  =     1.4081981607
 C/A-ratio  =     1.6569313785
 COS(beta)  =    -0.9052205732
  
  Lattice vectors:
  
 A1 = (   4.3071057600,   6.1309426610, -10.6177469370)
 A2 = ( -12.9951470410,   0.0135483230,  -0.0223585750)
 A3 = (  13.0316404910,  -0.0404660660,  21.2572762500)


Analysis of symmetry for initial positions (statically):
=====================================================================
 Subroutine PRICEL returns:
 Original cell was already a primitive cell.
 

 Routine SETGRP: Setting up the symmetry group for a 
 base centered monoclinic supercell.


 Subroutine GETGRP returns: Found  1 space group operations
 (whereof  1 operations were pure point group operations)
 out of a pool of  4 trial point group operations.


The static configuration has the point symmetry C_1 .


Analysis of symmetry for dynamics (positions and initial velocities):
=====================================================================
 Subroutine PRICEL returns:
 Original cell was already a primitive cell.
 

 Routine SETGRP: Setting up the symmetry group for a 
 base centered monoclinic supercell.


 Subroutine GETGRP returns: Found  1 space group operations
 (whereof  1 operations were pure point group operations)
 out of a pool of  4 trial point group operations.


The dynamic configuration has the point symmetry C_1 .


 Subroutine INISYM returns: Found  1 space group operations
 (whereof  1 operations are pure point group operations),
 and found     1 'primitive' translations


----------------------------------------------------------------------------------------

                                     Primitive cell                                     

  volume of cell :    1689.3617

  direct lattice vectors                    reciprocal lattice vectors
    12.995147041 -0.013548323  0.022358575     0.076899476  0.027363571  0.046994778
    -4.344442071 12.248515902 -0.022934774     0.000004010  0.081732338  0.047195846
    -4.307105760 -6.130942661 10.617746937    -0.000161924  0.000118924  0.094184924

  length of vectors
    12.995173338 12.996185776 12.995236356     0.094184943  0.094380205  0.094185138

  position of ions in fractional coordinates (direct lattice)
     0.004360825  0.995777786  0.001941131
     0.995561462  0.001156697  0.196468912
     0.998528730  0.996046570  0.393274300
     0.003949527  0.999672123  0.598254883
     0.000091348  0.003536532  0.804459658
     0.004644565  0.200927303  0.197977442
     0.002628452  0.199818163  0.397805113
     0.005684697  0.199504393  0.601143399
     0.000756855  0.396337561  0.197088234
     0.004711384  0.402011208  0.401267305
     0.002913313  0.398598135  0.599326454
     0.008770718  0.399688275  0.808671624
     0.004254906  0.607713851  0.004073618
     0.998064156  0.595587140  0.200717059
     0.002531700  0.600782381  0.402164624
     0.003985525  0.603520059  0.600989318
     0.001505216  0.595562606  0.796192025
     0.972317608  0.775191225  0.178358722
     0.995662181  0.795646115  0.398410925
     0.002445260  0.802143340  0.602335160
     0.001107876  0.802357680  0.807300944
     0.208231997  0.008859240  0.995217486
     0.205637132  0.003812527  0.178172871
     0.169728940  0.968769773  0.340975693
     0.198184261  0.998615917  0.595828093
     0.198355970  0.999286620  0.799286657
     0.199655757  0.203008832  0.002750296
     0.204473344  0.204464729  0.199959335
     0.198783455  0.195707318  0.392946264
     0.198292530  0.201053995  0.596765738
     0.195025553  0.200796880  0.801330526
     0.195916146  0.396745759  0.998476971
     0.200738175  0.397267981  0.199529434
     0.201431504  0.400279685  0.399911264
     0.200844723  0.400113277  0.597753548
     0.200989262  0.402778554  0.799396883
     0.201441615  0.603388155  0.000477938
     0.194543407  0.591154461  0.193353476
     0.201001479  0.599584679  0.399419694
     0.202419179  0.601357878  0.600364300
     0.200394692  0.602079763  0.800850508
     0.191191694  0.800829519  0.995848944
     0.202661053  0.796808970  0.195950557
     0.194880498  0.795575974  0.392643480
     0.200983366  0.801464600  0.599876579
     0.199447006  0.799790241  0.801628981
     0.402134052  0.999902423  0.996591033
     0.406414554  0.002063585  0.194603927
     0.393300320  0.996012765  0.388452439
     0.386215170  0.992690559  0.590890134
     0.400758731  0.000619763  0.798983426
     0.401821554  0.203492606  0.998086496
     0.407812064  0.208863692  0.199921147
     0.402067252  0.204502764  0.394994399
     0.390390449  0.196876300  0.592212903
     0.393507346  0.199969637  0.798942379
     0.397734186  0.401187183  0.998606895
     0.402029844  0.404275947  0.200313981
     0.401911687  0.404269577  0.401577254
     0.399037383  0.400231499  0.598863144
     0.398979937  0.402278154  0.799850061
     0.399539148  0.600593218  0.998949998
     0.400492449  0.598788946  0.199691955
     0.400034078  0.600593380  0.400693321
     0.400430486  0.601098696  0.599986329
     0.399989199  0.601883189  0.799964523
     0.399331067  0.799457036  0.996690442
     0.401734167  0.798548130  0.196869668
     0.394663111  0.794087403  0.394074010
     0.400921365  0.801903800  0.599172074
     0.400680696  0.800191554  0.798361801
     0.599587095  0.998597068  0.998011507
     0.602154562  0.000624183  0.196826670
     0.594185409  0.993408940  0.387784574
     0.609848648  0.000748344  0.808055783
     0.603694439  0.198827321  0.001154888
     0.603315808  0.202971773  0.199546650
     0.603167170  0.203099691  0.397626927
     0.577733584  0.201382968  0.580193841
     0.595854109  0.394848131  0.997693795
     0.600737215  0.402088941  0.200614142
     0.604501473  0.407028498  0.402454432
     0.602418130  0.407026584  0.601770403
     0.593953707  0.406467705  0.798464339
     0.596518298  0.600684767  0.999951898
     0.598044900  0.599600810  0.200515259
     0.600812298  0.604347142  0.402054907
     0.600892650  0.601494773  0.600748924
     0.606081614  0.606776276  0.804360398
     0.600550417  0.800148132  0.998271174
     0.600454131  0.799805413  0.199180492
     0.601483973  0.802489860  0.403308407
     0.602772888  0.801907961  0.603560668
     0.601416834  0.800133188  0.802011397
     0.805114621  0.003172746  0.999724481
     0.799359625  0.999971906  0.197630590
     0.803306831  0.002850005  0.402067839
     0.810616830  0.002419802  0.609590839
     0.803639544  0.201356718  0.195802353
     0.805041591  0.201647972  0.396151386
     0.809591562  0.395925216  0.007758627
     0.800896726  0.399542463  0.203526842
     0.805250231  0.403056712  0.402365002
     0.802385785  0.406868225  0.594019736
     0.789021875  0.587384273  0.996138552
     0.794515965  0.594303493  0.201781601
     0.801878445  0.602293040  0.403073705
     0.804661686  0.606217006  0.603751662
     0.821727121  0.625821602  0.819252943
     0.806311587  0.801381323  0.999838150
     0.793165179  0.797934237  0.199351747
     0.800684995  0.802467522  0.402164627
     0.803498422  0.802425429  0.600363561
     0.798942615  0.809623585  0.797938147
     0.003953268  0.200041969  0.002912061
     0.008421222  0.200302206  0.803463828
     0.008509123  0.402661262  0.007280706
     0.807790289  0.999702955  0.806860153
     0.805420857  0.199935808  0.006898584
     0.595707327  0.002989743  0.597193495
     0.597865708  0.201490251  0.795650316
     0.798237964  0.199788457  0.596871886
     0.819656644  0.201305467  0.817945708
     0.802590794  0.406663449  0.800186894

  ion indices of the primitive-cell ions
   primitive index   ion index
                 1           1
                 2           2
                 3           3
                 4           4
                 5           5
                 6           6
                 7           7
                 8           8
                 9           9
                10          10
                11          11
                12          12
                13          13
                14          14
                15          15
                16          16
                17          17
                18          18
                19          19
                20          20
                21          21
                22          22
                23          23
                24          24
                25          25
                26          26
                27          27
                28          28
                29          29
                30          30
                31          31
                32          32
                33          33
                34          34
                35          35
                36          36
                37          37
                38          38
                39          39
                40          40
                41          41
                42          42
                43          43
                44          44
                45          45
                46          46
                47          47
                48          48
                49          49
                50          50
                51          51
                52          52
                53          53
                54          54
                55          55
                56          56
                57          57
                58          58
                59          59
                60          60
                61          61
                62          62
                63          63
                64          64
                65          65
                66          66
                67          67
                68          68
                69          69
                70          70
                71          71
                72          72
                73          73
                74          74
                75          75
                76          76
                77          77
                78          78
                79          79
                80          80
                81          81
                82          82
                83          83
                84          84
                85          85
                86          86
                87          87
                88          88
                89          89
                90          90
                91          91
                92          92
                93          93
                94          94
                95          95
                96          96
                97          97
                98          98
                99          99
               100         100
               101         101
               102         102
               103         103
               104         104
               105         105
               106         106
               107         107
               108         108
               109         109
               110         110
               111         111
               112         112
               113         113
               114         114
               115         115
               116         116
               117         117
               118         118
               119         119
               120         120
               121         121
               122         122
               123         123
               124         124

----------------------------------------------------------------------------------------

 
 
 KPOINTS: KPOINTS created by Atomic Simulation Env

Automatic generation of k-mesh.
 Grid dimensions read from file:
 generate k-points for:    4    4    4

 Generating k-lattice:

  Cartesian coordinates                     Fractional coordinates (reciprocal lattice)
     0.019224869  0.006840893  0.011748694     0.250000000 -0.000000000 -0.000000000
     0.000001002  0.020433085  0.011798961     0.000000000  0.250000000  0.000000000
    -0.000040481  0.000029731  0.023546231     0.000000000  0.000000000  0.250000000

  Length of vectors
     0.023546236  0.023595051  0.023546285

  Shift w.r.t. Gamma in fractional coordinates (k-lattice)
     0.000000000  0.000000000  0.000000000

 
 Subroutine IBZKPT returns following result:
 ===========================================
 
 Found     36 irreducible k-points:
 
 Following reciprocal coordinates:
            Coordinates               Weight
  0.000000  0.000000  0.000000      1.000000
  0.250000  0.000000  0.000000      2.000000
  0.000000  0.000000 -0.250000      2.000000
  0.500000  0.000000  0.000000      1.000000
  0.000000  0.000000  0.500000      1.000000
  0.000000  0.250000  0.000000      2.000000
  0.250000  0.250000  0.000000      2.000000
  0.000000 -0.250000 -0.250000      2.000000
  0.500000  0.250000  0.000000      2.000000
  0.000000 -0.250000  0.500000      2.000000
 -0.250000  0.250000  0.000000      2.000000
  0.000000 -0.250000  0.250000      2.000000
  0.000000  0.500000  0.000000      1.000000
  0.250000  0.500000  0.000000      2.000000
  0.000000  0.500000 -0.250000      2.000000
  0.500000  0.500000  0.000000      1.000000
  0.000000  0.500000  0.500000      1.000000
  0.250000  0.000000  0.250000      2.000000
  0.500000  0.000000  0.250000      2.000000
 -0.250000  0.000000  0.500000      2.000000
 -0.250000  0.000000  0.250000      2.000000
  0.250000  0.250000  0.250000      2.000000
  0.500000  0.250000  0.250000      2.000000
 -0.250000 -0.250000  0.500000      2.000000
 -0.250000  0.250000  0.250000      2.000000
 -0.250000 -0.250000  0.250000      2.000000
  0.250000  0.500000  0.250000      2.000000
  0.500000  0.500000  0.250000      2.000000
 -0.250000  0.500000  0.500000      2.000000
 -0.250000  0.500000  0.250000      2.000000
  0.250000 -0.250000  0.250000      2.000000
  0.500000 -0.250000  0.250000      2.000000
 -0.250000  0.250000  0.500000      2.000000
  0.500000  0.000000  0.500000      1.000000
  0.500000  0.250000  0.500000      2.000000
  0.500000  0.500000  0.500000      1.000000
 
 Following cartesian coordinates:
            Coordinates               Weight
  0.000000  0.000000  0.000000      1.000000
  0.019225  0.006841  0.011749      2.000000
  0.000040 -0.000030 -0.023546      2.000000
  0.038450  0.013682  0.023497      1.000000
 -0.000081  0.000059  0.047092      1.000000
  0.000001  0.020433  0.011799      2.000000
  0.019226  0.027274  0.023548      2.000000
  0.000039 -0.020463 -0.035345      2.000000
  0.038451  0.034115  0.035296      2.000000
 -0.000082 -0.020374  0.035294      2.000000
 -0.019224  0.013592  0.000050      2.000000
 -0.000041 -0.020403  0.011747      2.000000
  0.000002  0.040866  0.023598      1.000000
  0.019227  0.047707  0.035347      2.000000
  0.000042  0.040836  0.000052      2.000000
  0.038452  0.054548  0.047095      1.000000
 -0.000079  0.040926  0.070690      1.000000
  0.019184  0.006871  0.035295      2.000000
  0.038409  0.013712  0.047044      2.000000
 -0.019306 -0.006781  0.035344      2.000000
 -0.019265 -0.006811  0.011798      2.000000
  0.019185  0.027304  0.047094      2.000000
  0.038410  0.034145  0.058843      2.000000
 -0.019307 -0.027215  0.023545      2.000000
 -0.019264  0.013622  0.023596      2.000000
 -0.019266 -0.027244 -0.000001      2.000000
  0.019186  0.047737  0.058893      2.000000
  0.038411  0.054578  0.070642      2.000000
 -0.019304  0.034085  0.058942      2.000000
 -0.019263  0.034055  0.035395      2.000000
  0.019183 -0.013562  0.023496      2.000000
  0.038408 -0.006722  0.035245      2.000000
 -0.019305  0.013652  0.047143      2.000000
  0.038369  0.013741  0.070590      1.000000
  0.038370  0.034174  0.082389      2.000000
  0.038371  0.054607  0.094188      1.000000
 


--------------------------------------------------------------------------------------------------------




 Dimension of arrays:
   k-points           NKPTS =     36   k-points in BZ     NKDIM =     36   number of bands    NBANDS=    820
   number of dos      NEDOS =    301   number of ions     NIONS =    124
   non local maximal  LDIM  =      6   non local SUM 2l+1 LMDIM =     18
   total plane-waves  NPLWV = 941192
   max r-space proj   IRMAX =      1   max aug-charges    IRDMAX=  21827
   dimension x,y,z NGX =    98 NGY =   98 NGZ =   98
   dimension x,y,z NGXF=   196 NGYF=  196 NGZF=  196
   support grid    NGXF=   196 NGYF=  196 NGZF=  196
   ions per type =             114   5   5
   NGX,Y,Z   is equivalent  to a cutoff of  12.54, 12.54, 12.54 a.u.
   NGXF,Y,Z  is equivalent  to a cutoff of  25.07, 25.07, 25.07 a.u.

 SYSTEM =  unknown system                          
 POSCAR =  V  Cr Ti                                

 Startparameter for this run:
   NWRITE =      2    write-flag & timer
   PREC   = accura    normal or accurate (medium, high low for compatibility)
   ISTART =      0    job   : 0-new  1-cont  2-samecut
   ICHARG =      2    charge: 1-file 2-atom 10-const
   ISPIN  =      1    spin polarized calculation?
   LNONCOLLINEAR =      F non collinear calculations
   LSORBIT =      F    spin-orbit coupling
   INIWAV =      1    electr: 0-lowe 1-rand  2-diag
   LASPH  =      F    aspherical Exc in radial PAW
 Electronic Relaxation 1
   ENCUT  =  520.0 eV  38.22 Ry    6.18 a.u.  24.16 24.16 24.16*2*pi/ulx,y,z
   ENINI  =  520.0     initial cutoff
   ENAUG  =  598.5 eV  augmentation charge cutoff
   NELM   =    100;   NELMIN=  2; NELMDL= -5     # of ELM steps 
   EDIFF  = 0.1E-05   stopping-criterion for ELM
   LREAL  =      F    real-space projection
   NLSPLINE    = F    spline interpolate recip. space projectors
   LCOMPAT=      F    compatible to vasp.4.4
   GGA_COMPAT  = T    GGA compatible to vasp.4.4-vasp.4.6
   LMAXPAW     = -100 max onsite density
   LMAXMIX     =    2 max onsite mixed and CHGCAR
   VOSKOWN=      0    Vosko Wilk Nusair interpolation
   ROPT   =    0.00000   0.00000   0.00000
 Ionic relaxation
   EDIFFG = -.1E-01   stopping-criterion for IOM
   NSW    =     -1    number of steps for IOM
   NBLOCK =      1;   KBLOCK =      1    inner block; outer block 
   IBRION =      2    ionic relax: 0-MD 1-quasi-New 2-CG
   NFREE  =      1    steps in history (QN), initial steepest desc. (CG)
   ISIF   =      2    stress and relaxation
   IWAVPR =     11    prediction:  0-non 1-charg 2-wave 3-comb
   ISYM   =      2    0-nonsym 1-usesym 2-fastsym
   LCORR  =      T    Harris-Foulkes like correction to forces

   POTIM  = 0.2000    time-step for ionic-motion
   TEIN   =    0.0    initial temperature
   TEBEG  =    0.0;   TEEND  =   0.0 temperature during run
   SMASS  =  -3.00    Nose mass-parameter (am)
   estimated Nose-frequenzy (Omega)   =  0.10E-29 period in steps = 0.31E+47 mass=  -0.386E-26a.u.
   SCALEE = 1.0000    scale energy and forces
   NPACO  =    256;   APACO  = 10.0  distance and # of slots for P.C.
   PSTRESS=    0.0 pullay stress

  Mass of Ions in am
   POMASS =  50.94 52.00 47.88
  Ionic Valenz
   ZVAL   =  11.00 12.00 10.00
  Atomic Wigner-Seitz radii
   RWIGS  =  -1.00 -1.00 -1.00
  virtual crystal weights 
   VCA    =   1.00  1.00  1.00
   NELECT =    1364.0000    total number of electrons
   NUPDOWN=      -1.0000    fix difference up-down

 DOS related values:
   EMIN   =  10.00;   EMAX   =-10.00  energy-range for DOS
   EFERMI =   0.00;   METHOD = LEGACY      
   ISMEAR =     1;   SIGMA  =   0.20  broadening in eV -4-tet -1-fermi 0-gaus

 Electronic relaxation 2 (details)
   IALGO  =     38    algorithm
   LDIAG  =      T    sub-space diagonalisation (order eigenvalues)
   LSUBROT=      F    optimize rotation matrix (better conditioning)
   TURBO    =      0    0=normal 1=particle mesh
   IRESTART =      0    0=no restart 2=restart with 2 vectors
   NREBOOT  =      0    no. of reboots
   NMIN     =      0    reboot dimension
   EREF     =   0.00    reference energy to select bands
   IMIX   =      4    mixing-type and parameters
     AMIX     =   0.40;   BMIX     =  1.00
     AMIX_MAG =   1.60;   BMIX_MAG =  1.00
     AMIN     =   0.10
     WC   =   100.;   INIMIX=   1;  MIXPRE=   1;  MAXMIX= -45

 Intra band minimization:
   WEIMIN = 0.0010     energy-eigenvalue tresh-hold
   EBREAK =  0.30E-09  absolut break condition
   DEPER  =   0.30     relativ break condition  

   TIME   =   0.40     timestep for ELM

  volume/ion in A,a.u.               =      13.62        91.94
  Fermi-wavevector in a.u.,A,eV,Ry     =   1.524423  2.880741 31.618097  2.323865
  Thomas-Fermi vector in A             =   2.632732
 
 Write flags
   LWAVE        =      F    write WAVECAR
   LDOWNSAMPLE  =      F    k-point downsampling of WAVECAR
   LCHARG       =      T    write CHGCAR
   LVTOT        =      F    write LOCPOT, total local potential
   LVHAR        =      F    write LOCPOT, Hartree potential only
   LELF         =      F    write electronic localiz. function (ELF)
   LORBIT       =     11    0 simple, 1 ext, 2 COOP (PROOUT), +10 PAW based schemes


 Dipole corrections
   LMONO  =      F    monopole corrections only (constant potential shift)
   LDIPOL =      F    correct potential (dipole corrections)
   IDIPOL =      0    1-x, 2-y, 3-z, 4-all directions 
   EPSILON=  1.0000000 bulk dielectric constant

 Exchange correlation treatment:
   GGA     =    PE    GGA type
   LEXCH   =     8    internal setting for exchange type
   LIBXC   =     F    Libxc                    
   VOSKOWN =     0    Vosko Wilk Nusair interpolation
   LHFCALC =     F    Hartree Fock is set to
   LHFONE  =     F    Hartree Fock one center treatment
   AEXX    =    0.0000 exact exchange contribution

 Linear response parameters
   LEPSILON=     F    determine dielectric tensor
   LRPA    =     F    only Hartree local field effects (RPA)
   LNABLA  =     F    use nabla operator in PAW spheres
   LVEL    =     F    velocity operator in full k-point grid
   CSHIFT  =0.1000    complex shift for real part using Kramers Kronig
   OMEGAMAX=  -1.0    maximum frequency
   DEG_THRESHOLD= 0.2000000E-02 threshold for treating states as degnerate
   RTIME   =   -0.100 relaxation time in fs
  (WPLASMAI=    0.000 imaginary part of plasma frequency in eV, 0.658/RTIME)
   DFIELD  = 0.0000000 0.0000000 0.0000000 field for delta impulse in time
 
  Optional k-point grid parameters
   LKPOINTS_OPT  =     F    use optional k-point grid
   KPOINTS_OPT_MODE=     1    mode for optional k-point grid
 
 Orbital magnetization related:
   ORBITALMAG=     F  switch on orbital magnetization
   LCHIMAG   =     F  perturbation theory with respect to B field
   DQ        =  0.001000  dq finite difference perturbation B field
   LLRAUG    =     F  two centre corrections for induced B field
   LBONE     =     F  B-component reconstruction in AE one-centre
   LVGVCALC  =     T  calculate vGv susceptibility
   LVGVAPPL  =     F  apply vGv susceptibility instead of pGv for G=0

 Random number generation:
   RANDOM_GENERATOR = DEFAULT
   PCG_SEED         = not used


--------------------------------------------------------------------------------------------------------


 conjugate gradient relaxation of ions
 charge density and potential will be updated during run
 non-spin polarized calculation
 Variant of blocked Davidson
 Davidson routine will perform the subspace rotation
 perform sub-space diagonalisation
    after iterative eigenvector-optimisation
 modified Broyden-mixing scheme, WC =      100.0
 initial mixing is a Kerker type mixing with AMIX =  0.4000 and BMIX =      1.0000
 Hartree-type preconditioning will be used
 using additional bands           138
 reciprocal scheme for non local part
 use partial core corrections
 calculate Harris-corrections to forces 
   (improved forces if not selfconsistent)
 use gradient corrections 
 use of overlap-Matrix (Vanderbilt PP)
 Methfessel and Paxton  Order N= 1 SIGMA  =   0.20


--------------------------------------------------------------------------------------------------------


  energy-cutoff  :      520.00
  volume of cell :     1689.36
      direct lattice vectors                 reciprocal lattice vectors
    12.995147041 -0.013548323  0.022358575     0.076899476  0.027363571  0.046994778
    -4.344442071 12.248515902 -0.022934774     0.000004010  0.081732338  0.047195846
    -4.307105760 -6.130942661 10.617746937    -0.000161924  0.000118924  0.094184924

  length of vectors
    12.995173338 12.996185776 12.995236356     0.094184943  0.094380205  0.094185138


 
 k-points in units of 2pi/SCALE and weight: KPOINTS created by Atomic Simulation Env
   0.00000000  0.00000000  0.00000000       0.016
   0.01922487  0.00684089  0.01174869       0.031
   0.00004048 -0.00002973 -0.02354623       0.031
   0.03844974  0.01368179  0.02349739       0.016
  -0.00008096  0.00005946  0.04709246       0.016
   0.00000100  0.02043308  0.01179896       0.031
   0.01922587  0.02727398  0.02354766       0.031
   0.00003948 -0.02046282 -0.03534519       0.031
   0.03845074  0.03411487  0.03529635       0.031
  -0.00008196 -0.02037362  0.03529350       0.031
  -0.01922387  0.01359219  0.00005027       0.031
  -0.00004148 -0.02040335  0.01174727       0.031
   0.00000200  0.04086617  0.02359792       0.016
   0.01922687  0.04770706  0.03534662       0.031
   0.00004249  0.04083644  0.00005169       0.031
   0.03845174  0.05454795  0.04709531       0.016
  -0.00007896  0.04092563  0.07069039       0.016
   0.01918439  0.00687062  0.03529493       0.031
   0.03840926  0.01371152  0.04704362       0.031
  -0.01930583 -0.00678143  0.03534377       0.031
  -0.01926535 -0.00681116  0.01179754       0.031
   0.01918539  0.02730371  0.04709389       0.031
   0.03841026  0.03414460  0.05884258       0.031
  -0.01930683 -0.02721452  0.02354481       0.031
  -0.01926435  0.01362192  0.02359650       0.031
  -0.01926635 -0.02724425 -0.00000142       0.031
   0.01918639  0.04773679  0.05889285       0.031
   0.03841126  0.05457769  0.07064154       0.031
  -0.01930383  0.03408474  0.05894169       0.031
  -0.01926335  0.03405501  0.03539546       0.031
   0.01918339 -0.01356246  0.02349596       0.031
   0.03840825 -0.00672157  0.03524466       0.031
  -0.01930483  0.01365165  0.04714273       0.031
   0.03836878  0.01374125  0.07058985       0.016
   0.03836978  0.03417433  0.08238881       0.031
   0.03837078  0.05460742  0.09418777       0.016
 
 k-points in reciprocal lattice and weights: KPOINTS created by Atomic Simulation Env
   0.00000000  0.00000000  0.00000000       0.016
   0.25000000  0.00000000  0.00000000       0.031
   0.00000000  0.00000000 -0.25000000       0.031
   0.50000000  0.00000000  0.00000000       0.016
   0.00000000  0.00000000  0.50000000       0.016
   0.00000000  0.25000000  0.00000000       0.031
   0.25000000  0.25000000  0.00000000       0.031
   0.00000000 -0.25000000 -0.25000000       0.031
   0.50000000  0.25000000  0.00000000       0.031
   0.00000000 -0.25000000  0.50000000       0.031
  -0.25000000  0.25000000  0.00000000       0.031
   0.00000000 -0.25000000  0.25000000       0.031
   0.00000000  0.50000000  0.00000000       0.016
   0.25000000  0.50000000  0.00000000       0.031
   0.00000000  0.50000000 -0.25000000       0.031
   0.50000000  0.50000000  0.00000000       0.016
   0.00000000  0.50000000  0.50000000       0.016
   0.25000000  0.00000000  0.25000000       0.031
   0.50000000  0.00000000  0.25000000       0.031
  -0.25000000  0.00000000  0.50000000       0.031
  -0.25000000  0.00000000  0.25000000       0.031
   0.25000000  0.25000000  0.25000000       0.031
   0.50000000  0.25000000  0.25000000       0.031
  -0.25000000 -0.25000000  0.50000000       0.031
  -0.25000000  0.25000000  0.25000000       0.031
  -0.25000000 -0.25000000  0.25000000       0.031
   0.25000000  0.50000000  0.25000000       0.031
   0.50000000  0.50000000  0.25000000       0.031
  -0.25000000  0.50000000  0.50000000       0.031
  -0.25000000  0.50000000  0.25000000       0.031
   0.25000000 -0.25000000  0.25000000       0.031
   0.50000000 -0.25000000  0.25000000       0.031
  -0.25000000  0.25000000  0.50000000       0.031
   0.50000000  0.00000000  0.50000000       0.016
   0.50000000  0.25000000  0.50000000       0.031
   0.50000000  0.50000000  0.50000000       0.016
 
 position of ions in fractional coordinates (direct lattice) 
   0.00436082  0.99577779  0.00194113
   0.99556146  0.00115670  0.19646891
   0.99852873  0.99604657  0.39327430
   0.00394953  0.99967212  0.59825488
   0.00009135  0.00353653  0.80445966
   0.00464457  0.20092730  0.19797744
   0.00262845  0.19981816  0.39780511
   0.00568470  0.19950439  0.60114340
   0.00075685  0.39633756  0.19708823
   0.00471138  0.40201121  0.40126730
   0.00291331  0.39859813  0.59932645
   0.00877072  0.39968827  0.80867162
   0.00425491  0.60771385  0.00407362
   0.99806416  0.59558714  0.20071706
   0.00253170  0.60078238  0.40216462
   0.00398553  0.60352006  0.60098932
   0.00150522  0.59556261  0.79619203
   0.97231761  0.77519123  0.17835872
   0.99566218  0.79564611  0.39841092
   0.00244526  0.80214334  0.60233516
   0.00110788  0.80235768  0.80730094
   0.20823200  0.00885924  0.99521749
   0.20563713  0.00381253  0.17817287
   0.16972894  0.96876977  0.34097569
   0.19818426  0.99861592  0.59582809
   0.19835597  0.99928662  0.79928666
   0.19965576  0.20300883  0.00275030
   0.20447334  0.20446473  0.19995934
   0.19878345  0.19570732  0.39294626
   0.19829253  0.20105399  0.59676574
   0.19502555  0.20079688  0.80133053
   0.19591615  0.39674576  0.99847697
   0.20073818  0.39726798  0.19952943
   0.20143150  0.40027969  0.39991126
   0.20084472  0.40011328  0.59775355
   0.20098926  0.40277855  0.79939688
   0.20144162  0.60338815  0.00047794
   0.19454341  0.59115446  0.19335348
   0.20100148  0.59958468  0.39941969
   0.20241918  0.60135788  0.60036430
   0.20039469  0.60207976  0.80085051
   0.19119169  0.80082952  0.99584894
   0.20266105  0.79680897  0.19595056
   0.19488050  0.79557597  0.39264348
   0.20098337  0.80146460  0.59987658
   0.19944701  0.79979024  0.80162898
   0.40213405  0.99990242  0.99659103
   0.40641455  0.00206358  0.19460393
   0.39330032  0.99601276  0.38845244
   0.38621517  0.99269056  0.59089013
   0.40075873  0.00061976  0.79898343
   0.40182155  0.20349261  0.99808650
   0.40781206  0.20886369  0.19992115
   0.40206725  0.20450276  0.39499440
   0.39039045  0.19687630  0.59221290
   0.39350735  0.19996964  0.79894238
   0.39773419  0.40118718  0.99860690
   0.40202984  0.40427595  0.20031398
   0.40191169  0.40426958  0.40157725
   0.39903738  0.40023150  0.59886314
   0.39897994  0.40227815  0.79985006
   0.39953915  0.60059322  0.99895000
   0.40049245  0.59878895  0.19969196
   0.40003408  0.60059338  0.40069332
   0.40043049  0.60109870  0.59998633
   0.39998920  0.60188319  0.79996452
   0.39933107  0.79945704  0.99669044
   0.40173417  0.79854813  0.19686967
   0.39466311  0.79408740  0.39407401
   0.40092137  0.80190380  0.59917207
   0.40068070  0.80019155  0.79836180
   0.59958710  0.99859707  0.99801151
   0.60215456  0.00062418  0.19682667
   0.59418541  0.99340894  0.38778457
   0.60984865  0.00074834  0.80805578
   0.60369444  0.19882732  0.00115489
   0.60331581  0.20297177  0.19954665
   0.60316717  0.20309969  0.39762693
   0.57773358  0.20138297  0.58019384
   0.59585411  0.39484813  0.99769380
   0.60073721  0.40208894  0.20061414
   0.60450147  0.40702850  0.40245443
   0.60241813  0.40702658  0.60177040
   0.59395371  0.40646771  0.79846434
   0.59651830  0.60068477  0.99995190
   0.59804490  0.59960081  0.20051526
   0.60081230  0.60434714  0.40205491
   0.60089265  0.60149477  0.60074892
   0.60608161  0.60677628  0.80436040
   0.60055042  0.80014813  0.99827117
   0.60045413  0.79980541  0.19918049
   0.60148397  0.80248986  0.40330841
   0.60277289  0.80190796  0.60356067
   0.60141683  0.80013319  0.80201140
   0.80511462  0.00317275  0.99972448
   0.79935963  0.99997191  0.19763059
   0.80330683  0.00285000  0.40206784
   0.81061683  0.00241980  0.60959084
   0.80363954  0.20135672  0.19580235
   0.80504159  0.20164797  0.39615139
   0.80959156  0.39592522  0.00775863
   0.80089673  0.39954246  0.20352684
   0.80525023  0.40305671  0.40236500
   0.80238578  0.40686822  0.59401974
   0.78902187  0.58738427  0.99613855
   0.79451596  0.59430349  0.20178160
   0.80187844  0.60229304  0.40307370
   0.80466169  0.60621701  0.60375166
   0.82172712  0.62582160  0.81925294
   0.80631159  0.80138132  0.99983815
   0.79316518  0.79793424  0.19935175
   0.80068500  0.80246752  0.40216463
   0.80349842  0.80242543  0.60036356
   0.79894261  0.80962359  0.79793815
   0.00395327  0.20004197  0.00291206
   0.00842122  0.20030221  0.80346383
   0.00850912  0.40266126  0.00728071
   0.80779029  0.99970295  0.80686015
   0.80542086  0.19993581  0.00689858
   0.59570733  0.00298974  0.59719349
   0.59786571  0.20149025  0.79565032
   0.79823796  0.19978846  0.59687189
   0.81965664  0.20130547  0.81794571
   0.80259079  0.40666345  0.80018689
 
 position of ions in cartesian coordinates  (Angst):
  -4.27779000 12.18484000 -0.00213000
  12.08623000 -1.20386000  2.10829000
   6.95488704  9.77542168  4.17516857
  -6.86844000  8.57658000  6.32928000
  -3.47907000 -4.88878000  8.54147000
  -1.66527000  1.24721000  2.09757000
  -2.54733000  0.00852000  4.21927000
  -3.38205000 -1.24202000  6.37834000
  -2.56091000  3.64620000  2.08356000
  -3.41359000  2.46383000  4.25144000
  -4.27519000  1.20776000  6.35442000
  -5.10548000 -0.06245000  8.57730000
  -2.60243000  7.41856000  0.02941000
   9.51798704  6.05095168  2.13981857
  -4.30933000  4.89301000  4.25636000
  -5.15869000  3.70754000  6.36740000
  -5.99711000  2.41333000  8.44014000
   8.49942704  8.38826168  1.89772857
   7.76614000  7.28936000  4.23424000
  -6.04741000  6.13215000  6.37710000
  -6.94853000  4.87816000  8.55334000
  -1.61899000 -5.99593000 10.57142000
   1.88831207 -1.04845590  1.89630477
  -3.47173000  9.77319000  3.60197000
  -4.32929000  8.57589000  6.30788000
  -5.20629000  7.33671000  8.46814000
   1.70075000  2.46699000  0.02901000
   0.90763000  1.27568000  2.12300000
   0.04052000 -0.01470000  4.17216000
  -0.86696000 -1.19881000  6.33613000
  -1.78938000 -2.45609000  8.50808000
  -3.47822576 -1.26471266 10.59685694
   0.02332000  3.63992000  2.11393000
  -0.84382000  2.44827000  4.24148000
  -1.70285000  1.23328000  6.34211000
  -2.58105000  0.02966000  8.48305000
  -0.00568000  7.38495000 -0.00426000
  -0.87291000  6.05269000  2.04377000
  -1.71316000  4.89248000  4.23168000
  -2.56793000  3.68220000  6.36525000
  -3.46089000  2.46190000  8.49390000
  -5.28382000  3.70089000 10.55958000
  -1.67206000  8.55562000  2.06681000
  -2.61499000  7.33471000  4.15510000
  -3.45384000  6.13622000  6.35545000
  -4.33550000  4.87880000  8.49761000
  -3.41065000  6.13183000 10.56761000
   4.43427207 -1.17333590  2.07529477
  -0.88923000  9.81277000  4.11044000
  -1.83879000  8.53104000  6.25979000
   1.76392000 -4.89636000  8.49235000
   0.03880424 -3.63217266 10.60174694
   3.53110000  1.32704000  2.12704000
   2.63519000  0.07772000  4.19825000
   1.66714000 -1.22467000  6.29218000
   0.80380000 -2.45427000  8.48718000
  -0.87542576 -1.21384266 10.60264694
   2.60531000  3.71822000  2.12660000
   1.73694000  2.48421000  4.26356000
   0.86740000  1.22524000  6.35832000
  -0.00791000  0.01807000  8.49230000
  -1.71975576  1.22645734 10.60175694
   1.74296000  6.10455000  2.11550000
   0.86343000  4.89433000  4.24963000
   0.00801000  3.67866000  6.36567000
  -0.86246000  2.46222000  8.48896000
  -2.57668000  3.67610000 10.57320000
   0.90341000  8.56859000  2.08098000
  -0.01848000  7.30500000  4.17479000
  -0.85449000  6.14321000  6.35243000
  -1.70811000  4.90102000  8.46741000
  -0.84516576  6.10445734 10.58713694
   6.97462207 -1.20724590  2.10330477
   1.73549000  9.78225000  4.10790000
   4.44144000 -4.95324000  8.59335000
   6.97633000  2.42008000  0.02120000
   6.09891000  1.25452000  2.12757000
   5.24327000  0.04167000  4.23073000
   4.13388000 -1.09832000  6.16865000
   1.73064424 -1.28857266 10.59752694
   5.19575000  3.68690000  2.13428000
   4.35386000  2.50988000  4.27734000
   3.46832000  1.28789000  6.39358000
   2.51357000  0.07524000  8.48185000
   0.83530424  1.21876734 10.61679694
   4.30311000  6.10677000  2.12864000
   3.45040000  4.92924000  4.26849000
   2.60804000  3.67612000  6.37824000
   1.77555000  2.49241000  8.54013000
   0.02838424  3.67214734 10.59446694
   3.47039000  8.56713000  2.10993000
   2.59291000  7.34850000  4.27727000
   1.74968000  6.11362000  6.40354000
   0.88502000  4.87521000  8.51065000
   6.14288000 -6.10130000 10.63275000
   5.19226000 11.02568000  2.09333000
   8.69496000 -2.44103000  4.28695000
   7.89800000 -3.71871000  6.49055000
   8.72529000  1.25498000  2.09233000
   7.87932000  0.03020000  4.21961000
   8.76727000  4.79096000  0.09140000
   7.79537000  3.63514000  2.16974000
   6.98026000  2.45906000  4.28097000
   6.10100000  1.33076000  6.31576000
   3.41112424  1.07662734 10.58091694
   6.87384000  6.03146000  2.14660000
   6.06782000  4.89511000  4.28385000
   5.22260000  3.71279000  6.41457000
   4.43101000  2.63146000  8.70264000
   2.69017424  3.67485734 10.61567694
   5.98209000  8.54055000  2.11610000
   5.18658000  7.35254000  4.26958000
   4.36966000  6.13684000  6.37407000
   3.42821000  5.01375000  8.47160000
  -0.83024000  2.43231000  0.02642000
  -4.22137000 -2.47270000  8.52657000
  -1.67012000  4.88725000  0.06826000
   2.67897000  7.28712000  8.56217000
   9.56824000  2.39571000  0.08667000
   5.15614000 -3.63281000  6.35410000
   3.46704000 -2.41823000  8.45676000
   6.93446000 -1.22309000  6.35070000
   6.25402000 -2.56019000  8.69845000
   5.21657000  0.06425000  8.50480000
 


--------------------------------------------------------------------------------------------------------


 k-point   1 :   0.0000 0.0000 0.0000  plane waves:   45567
 k-point   2 :   0.2500 0.0000 0.0000  plane waves:   45468
 k-point   3 :   0.0000 0.0000-0.2500  plane waves:   45468
 k-point   4 :   0.5000 0.0000 0.0000  plane waves:   45464
 k-point   5 :   0.0000 0.0000 0.5000  plane waves:   45464
 k-point   6 :   0.0000 0.2500 0.0000  plane waves:   45468
 k-point   7 :   0.2500 0.2500 0.0000  plane waves:   45502
 k-point   8 :   0.0000-0.2500-0.2500  plane waves:   45502
 k-point   9 :   0.5000 0.2500 0.0000  plane waves:   45494
 k-point  10 :   0.0000-0.2500 0.5000  plane waves:   45494
 k-point  11 :  -0.2500 0.2500 0.0000  plane waves:   45469
 k-point  12 :   0.0000-0.2500 0.2500  plane waves:   45470
 k-point  13 :   0.0000 0.5000 0.0000  plane waves:   45472
 k-point  14 :   0.2500 0.5000 0.0000  plane waves:   45502
 k-point  15 :   0.0000 0.5000-0.2500  plane waves:   45502
 k-point  16 :   0.5000 0.5000 0.0000  plane waves:   45470
 k-point  17 :   0.0000 0.5000 0.5000  plane waves:   45470
 k-point  18 :   0.2500 0.0000 0.2500  plane waves:   45497
 k-point  19 :   0.5000 0.0000 0.2500  plane waves:   45499
 k-point  20 :  -0.2500 0.0000 0.5000  plane waves:   45499
 k-point  21 :  -0.2500 0.0000 0.2500  plane waves:   45470
 k-point  22 :   0.2500 0.2500 0.2500  plane waves:   45516
 k-point  23 :   0.5000 0.2500 0.2500  plane waves:   45501
 k-point  24 :  -0.2500-0.2500 0.5000  plane waves:   45501
 k-point  25 :  -0.2500 0.2500 0.2500  plane waves:   45454
 k-point  26 :  -0.2500-0.2500 0.2500  plane waves:   45454
 k-point  27 :   0.2500 0.5000 0.2500  plane waves:   45493
 k-point  28 :   0.5000 0.5000 0.2500  plane waves:   45500
 k-point  29 :  -0.2500 0.5000 0.5000  plane waves:   45500
 k-point  30 :  -0.2500 0.5000 0.2500  plane waves:   45488
 k-point  31 :   0.2500-0.2500 0.2500  plane waves:   45479
 k-point  32 :   0.5000-0.2500 0.2500  plane waves:   45499
 k-point  33 :  -0.2500 0.2500 0.5000  plane waves:   45499
 k-point  34 :   0.5000 0.0000 0.5000  plane waves:   45474
 k-point  35 :   0.5000 0.2500 0.5000  plane waves:   45488
 k-point  36 :   0.5000 0.5000 0.5000  plane waves:   45516

 maximum and minimum number of plane-waves per node :     45567    45454

 maximum number of plane-waves:     45567
 maximum index in each direction: 
   IXMAX=   24   IYMAX=   24   IZMAX=   24
   IXMIN=  -24   IYMIN=  -24   IZMIN=  -24


 serial   3D FFT for wavefunctions
 parallel 3D FFT for charge:
    minimum data exchange during FFTs selected (reduces bandwidth)


 total amount of memory used by VASP MPI-rank0  6702056. kBytes
=======================================================================

   base      :      30000. kBytes
   nonl-proj :     799080. kBytes
   fftplans  :      67629. kBytes
   grid      :     159195. kBytes
   one-center:       1928. kBytes
   wavefun   :    5644224. kBytes
 
     INWAV:  cpu time      0.0001: real time      0.0000
 Broyden mixing: mesh for mixing (old mesh)
   NGX = 49   NGY = 49   NGZ = 49
  (NGX  =196   NGY  =196   NGZ  =196)
  gives a total of 117649 points

 initial charge density was supplied:
 charge density of overlapping atoms calculated
 number of electron    1364.0000000 magnetization 
 keeping initial charge density in first step


--------------------------------------------------------------------------------------------------------


 Maximum index for augmentation-charges          5250 (set IRDMAX)


--------------------------------------------------------------------------------------------------------


 First call to EWALD:  gamma=   0.149
 Maximum number of real-space cells 3x 3x 3
 Maximum number of reciprocal cells 3x 3x 3

    FEWALD:  cpu time      0.0727: real time      0.0096


--------------------------------------- Ionic step        1  -------------------------------------------




--------------------------------------- Iteration      1(   1)  ---------------------------------------


    POTLOK:  cpu time      0.1070: real time      0.1243
    SETDIJ:  cpu time      0.1104: real time      0.0140
     EDDAV:  cpu time     73.5129: real time     73.7921
       DOS:  cpu time      0.0182: real time      0.0182
    --------------------------------------------
      LOOP:  cpu time     73.7485: real time     73.9487

 eigenvalue-minimisations  : 59040
 total energy-change (2. order) : 0.2324273E+05  (-0.7102493E+05)
 number of electron    1364.0000000 magnetization 
 augmentation part     1364.0000000 magnetization 

 Free energy of the ion-electron system (eV)
  ---------------------------------------------------
  alpha Z        PSCENC =     12315.99909697
  Ewald energy   TEWEN  =   -129814.39490415
  -Hartree energ DENC   =    -36172.13518356
  -exchange      EXHF   =         0.00000000
  -V(xc)+E(xc)   XCENC  =      3691.70168278
  PAW double counting   =    134689.96621064  -132185.80545990
  entropy T*S    EENTRO =         0.00442536
  eigenvalues    EBANDS =      6600.71480963
  atomic energy  EATOM  =    164116.68312662
  Solvation  Ediel_sol  =         0.00000000
  ---------------------------------------------------
  free energy    TOTEN  =     23242.73380439 eV

  energy without entropy =    23242.72937902  energy(sigma->0) =    23242.73232927


--------------------------------------------------------------------------------------------------------




--------------------------------------- Iteration      1(   2)  ---------------------------------------


     EDDAV:  cpu time     73.6874: real time     73.8739
       DOS:  cpu time      0.0221: real time      0.0221
    --------------------------------------------
      LOOP:  cpu time     73.7095: real time     73.8960

 eigenvalue-minimisations  : 59360
 total energy-change (2. order) :-0.2295712E+05  (-0.2261485E+05)
 number of electron    1364.0000000 magnetization 
 augmentation part     1364.0000000 magnetization 

 Free energy of the ion-electron system (eV)
  ---------------------------------------------------
  alpha Z        PSCENC =     12315.99909697
  Ewald energy   TEWEN  =   -129814.39490415
  -Hartree energ DENC   =    -36172.13518356
  -exchange      EXHF   =         0.00000000
  -V(xc)+E(xc)   XCENC  =      3691.70168278
  PAW double counting   =    134689.96621064  -132185.80545990
  entropy T*S    EENTRO =         0.00942584
  eigenvalues    EBANDS =    -16356.40606953
  atomic energy  EATOM  =    164116.68312662
  Solvation  Ediel_sol  =         0.00000000
  ---------------------------------------------------
  free energy    TOTEN  =       285.61792571 eV

  energy without entropy =      285.60849987  energy(sigma->0) =      285.61478376


--------------------------------------------------------------------------------------------------------




--------------------------------------- Iteration      1(   3)  ---------------------------------------


     EDDAV:  cpu time     97.4106: real time     97.6774
       DOS:  cpu time      0.0219: real time      0.0219
    --------------------------------------------
      LOOP:  cpu time     97.4325: real time     97.6993

 eigenvalue-minimisations  : 85464
 total energy-change (2. order) :-0.1477913E+04  (-0.1408715E+04)
 number of electron    1364.0000000 magnetization 
 augmentation part     1364.0000000 magnetization 

 Free energy of the ion-electron system (eV)
  ---------------------------------------------------
  alpha Z        PSCENC =     12315.99909697
  Ewald energy   TEWEN  =   -129814.39490415
  -Hartree energ DENC   =    -36172.13518356
[...]
   -.953E+02 0.170E+03 -.568E+02   0.956E+02 -.170E+03 0.568E+02   -.247E+00 0.621E+00 -.207E-01   -.326E-02 0.476E-02 -.633E-02
   -.274E+01 0.382E+02 0.152E+02   0.262E+01 -.381E+02 -.153E+02   0.134E+00 -.115E+00 0.113E+00   0.881E-03 0.436E-03 -.404E-02
   0.950E+02 -.711E+02 0.146E+03   -.941E+02 0.712E+02 -.146E+03   -.844E+00 -.112E+00 0.343E+00   0.675E-03 0.196E-03 -.786E-02
   0.130E+03 -.144E+03 0.127E+03   -.130E+03 0.145E+03 -.126E+03   -.132E+00 -.538E+00 -.757E+00   0.181E-02 -.398E-02 -.388E-02
   0.940E+02 -.442E+02 0.130E+03   -.942E+02 0.437E+02 -.131E+03   0.135E+00 0.524E+00 0.380E+00   -.255E-02 0.379E-02 -.836E-02
   0.110E+03 -.604E+02 0.127E+03   -.111E+03 0.599E+02 -.126E+03   0.609E+00 0.575E+00 -.682E+00   -.591E-02 -.158E-02 -.310E-02
   0.189E+02 -.126E+03 -.387E+02   -.189E+02 0.126E+03 0.383E+02   -.851E-01 0.198E+00 0.341E+00   0.344E-02 -.258E-03 0.223E-03
   -.780E+02 -.600E+02 0.990E+02   0.776E+02 0.598E+02 -.991E+02   0.358E+00 0.276E+00 0.877E-01   0.144E-02 -.254E-02 -.514E-04
   0.137E+03 0.174E+02 -.493E+02   -.137E+03 -.172E+02 0.490E+02   -.123E+00 -.203E+00 0.279E+00   0.146E-02 -.244E-02 -.153E-02
   0.198E+03 -.145E+03 0.240E+03   -.198E+03 0.145E+03 -.239E+03   -.838E-01 0.455E-01 -.229E+00   0.251E-03 -.219E-02 -.714E-02
   0.353E+02 0.509E+02 0.697E+02   -.356E+02 -.508E+02 -.698E+02   0.267E+00 -.718E-01 0.499E-01   0.262E-03 -.592E-02 -.723E-02
 -----------------------------------------------------------------------------------------------
   0.877E+00 -.506E+00 0.223E+01   0.598E-11 -.512E-12 -.341E-12   -.878E+00 0.508E+00 -.222E+01   -.226E-02 0.680E-03 -.162E-02
 
 
 POSITION                                       TOTAL-FORCE (eV/Angst)
 -----------------------------------------------------------------------------------
     -4.27779     12.18484     -0.00213        -0.057011      0.034522     -0.070168
     12.08623     -1.20386      2.10829         0.113711     -0.065758      0.004903
      6.95489      9.77542      4.17517        -0.106713      0.018980     -0.073600
     -6.86844      8.57658      6.32928         0.002790     -0.028595      0.000137
     -3.47907     -4.88878      8.54147         0.018104     -0.004670     -0.004186
     -1.66527      1.24721      2.09757         0.018790     -0.025291     -0.026723
     -2.54733      0.00852      4.21927        -0.029864      0.020124     -0.025731
     -3.38205     -1.24202      6.37834         0.009276      0.008539     -0.000869
     -2.56091      3.64620      2.08356        -0.004362      0.004864     -0.001358
     -3.41359      2.46383      4.25144        -0.005058      0.008868     -0.014816
     -4.27519      1.20776      6.35442        -0.003124      0.001309     -0.014113
     -5.10548     -0.06245      8.57730         0.021019     -0.003468     -0.025108
     -2.60243      7.41856      0.02941         0.079339     -0.023053     -0.071528
      9.51799      6.05095      2.13982        -0.073863      0.121651     -0.058383
     -4.30933      4.89301      4.25636        -0.022287      0.043195     -0.028981
     -5.15869      3.70754      6.36740        -0.017200      0.015916      0.000312
     -5.99711      2.41333      8.44014         0.023608     -0.001079     -0.049825
      8.49943      8.38826      1.89773         0.514694      0.654835     -0.099885
      7.76614      7.28936      4.23424         0.071825      0.122128     -0.138359
     -6.04741      6.13215      6.37710        -0.001341     -0.001947     -0.010250
     -6.94853      4.87816      8.55334        -0.003745     -0.007270      0.056677
     -1.61899     -5.99593     10.57142        -0.019904     -0.053519      0.118179
      1.88831     -1.04846      1.89630        -0.497891     -0.588118     -0.110581
     -3.47173      9.77319      3.60197        -0.010382     -0.012098      1.779441
     -4.32929      8.57589      6.30788        -0.029224     -0.061371     -0.066141
     -5.20629      7.33671      8.46814        -0.007140     -0.004916      0.006248
      1.70075      2.46699      0.02901         0.010413     -0.020870      0.009672
      0.90763      1.27568      2.12300         0.069107     -0.125851     -0.022012
      0.04052     -0.01470      4.17216        -0.055194      0.070237     -0.054457
     -0.86696     -1.19881      6.33613         0.070649     -0.050841     -0.128745
     -1.78938     -2.45609      8.50808         0.020705     -0.003664     -0.021111
     -3.47823     -1.26471     10.59686         0.013067      0.001136      0.018971
      0.02332      3.63992      2.11393         0.008189     -0.000859     -0.005942
     -0.84382      2.44827      4.24148         0.005473      0.013076     -0.026682
     -1.70285      1.23328      6.34211        -0.000775     -0.013328     -0.006374
     -2.58105      0.02966      8.48305         0.026580     -0.018375     -0.014088
     -0.00568      7.38495     -0.00426         0.007862     -0.002159      0.013272
     -0.87291      6.05269      2.04377        -0.024555      0.025001     -0.016859
     -1.71316      4.89248      4.23168        -0.009132     -0.007757     -0.032064
     -2.56793      3.68220      6.36525        -0.005501      0.011436     -0.020970
     -3.46089      2.46190      8.49390         0.017283     -0.006021     -0.015815
     -5.28382      3.70089     10.55958         0.069442     -0.050847     -0.048458
     -1.67206      8.55562      2.06681        -0.149461      0.064548      0.004043
     -2.61499      7.33471      4.15510         0.044463     -0.078535     -0.059437
     -3.45384      6.13622      6.35545        -0.016789      0.002967      0.003691
     -4.33550      4.87880      8.49761        -0.002562      0.017253     -0.006317
     -3.41065      6.13183     10.56761        -0.021127     -0.000728      0.022265
      4.43427     -1.17334      2.07529        -0.178257      0.004058     -0.042602
     -0.88923      9.81277      4.11044         0.072354     -0.037509     -0.066589
     -1.83879      8.53104      6.25979        -0.069878      0.046524     -0.115955
      1.76392     -4.89636      8.49235        -0.005563      0.021106     -0.015791
      0.03880     -3.63217     10.60175        -0.004204     -0.003142      0.004269
      3.53110      1.32704      2.12704        -0.067325     -0.119729      0.030007
      2.63519      0.07772      4.19825        -0.087908     -0.154117     -0.138031
      1.66714     -1.22467      6.29218         0.049543      0.054357     -0.034019
      0.80380     -2.45427      8.48718        -0.004765     -0.004764     -0.033201
     -0.87543     -1.21384     10.60265         0.011548     -0.018606      0.006978
      2.60531      3.71822      2.12660         0.010509     -0.035698      0.002367
      1.73694      2.48421      4.26356         0.025736     -0.047154     -0.026742
      0.86740      1.22524      6.35832         0.019134      0.005614      0.000767
     -0.00791      0.01807      8.49230         0.000185     -0.023701     -0.026583
     -1.71976      1.22646     10.60176         0.002895     -0.009459      0.011208
      1.74296      6.10455      2.11550        -0.008212      0.002162      0.008531
      0.86343      4.89433      4.24963         0.006967      0.001655     -0.011346
      0.00801      3.67866      6.36567         0.008326     -0.007735     -0.016429
     -0.86246      2.46222      8.48896         0.003983     -0.008777     -0.014216
     -2.57668      3.67610     10.57320         0.019537      0.007811      0.008492
      0.90341      8.56859      2.08098        -0.029429      0.015950     -0.034147
     -0.01848      7.30500      4.17479         0.030033     -0.013049     -0.018955
     -0.85449      6.14321      6.35243         0.008971      0.003696      0.004076
     -1.70811      4.90102      8.46741        -0.005752      0.009661     -0.005806
     -0.84517      6.10446     10.58714        -0.005634      0.006852      0.015806
      6.97462     -1.20725      2.10330         0.002153     -0.002889     -0.005282
      1.73549      9.78225      4.10790         0.009807      0.010206     -0.049663
      4.44144     -4.95324      8.59335        -0.012640      0.007038     -0.009170
      6.97633      2.42008      0.02120        -0.022156      0.011968      0.013223
      6.09891      1.25452      2.12757        -0.030802     -0.009121     -0.000231
      5.24327      0.04167      4.23073        -0.039522      0.000927     -0.041944
      4.13388     -1.09832      6.16865        -0.015884      0.054645      0.010122
      1.73064     -1.28857     10.59753         0.005955      0.005957      0.007179
      5.19575      3.68690      2.13428        -0.000489      0.007187     -0.003421
      4.35386      2.50988      4.27734        -0.018776     -0.036520     -0.027967
      3.46832      1.28789      6.39358        -0.001689     -0.003190     -0.003003
      2.51357      0.07524      8.48185        -0.009487      0.004683      0.019221
      0.83530      1.21877     10.61680         0.023247     -0.001909      0.023844
      4.30311      6.10677      2.12864         0.031405      0.004336     -0.004752
      3.45040      4.92924      4.26849         0.015177     -0.015938     -0.019160
      2.60804      3.67612      6.37824         0.017154     -0.019243     -0.002930
      1.77555      2.49241      8.54013        -0.005078     -0.018824     -0.000590
      0.02838      3.67215     10.59447        -0.027025     -0.013254      0.010384
      3.47039      8.56713      2.10993         0.012089     -0.010535     -0.004230
      2.59291      7.34850      4.27727         0.001687     -0.002733     -0.015824
      1.74968      6.11362      6.40354        -0.002394      0.002316     -0.023991
      0.88502      4.87521      8.51065        -0.015956      0.006465     -0.015339
      6.14288     -6.10130     10.63275        -0.010485      0.002845      0.011657
      5.19226     11.02568      2.09333         0.031042     -0.023486     -0.029860
      8.69496     -2.44103      4.28695        -0.010858     -0.013488     -0.035758
      7.89800     -3.71871      6.49055         0.000122      0.000893     -0.020152
      8.72529      1.25498      2.09233         0.000317     -0.007692      0.015106
      7.87932      0.03020      4.21961         0.002268      0.003818     -0.017521
      8.76727      4.79096      0.09140        -0.017978      0.018180      0.006058
      7.79537      3.63514      2.16974        -0.007155      0.036735     -0.003698
      6.98026      2.45906      4.28097        -0.014345      0.018181     -0.018297
      6.10100      1.33076      6.31576        -0.008950      0.015188     -0.003848
      3.41112      1.07663     10.58092         0.037407      0.076494      0.170557
      6.87384      6.03146      2.14660         0.082396      0.131292      0.034196
      6.06782      4.89511      4.28385         0.023372      0.042151     -0.023413
      5.22260      3.71279      6.41457         0.001642      0.003288      0.017055
      4.43101      2.63146      8.70264         0.004127     -0.000087      0.088108
      2.69017      3.67486     10.61568        -0.063881      0.065778     -0.056262
      5.98209      8.54055      2.11610         0.173095     -0.029800     -0.051588
      5.18658      7.35254      4.26958         0.034837     -0.005089     -0.034311
      4.36966      6.13684      6.37407         0.009930     -0.018125     -0.001064
      3.42821      5.01375      8.47160        -0.008173     -0.007766     -0.040587
     -0.83024      2.43231      0.02642         0.015912      0.016684      0.014875
     -4.22137     -2.47270      8.52657         0.008985     -0.004828     -0.001875
     -1.67012      4.88725      0.06826        -0.004874     -0.014636      0.007256
      2.67897      7.28712      8.56217        -0.006185      0.002120     -0.017427
      9.56824      2.39571      0.08667        -0.002399     -0.002048      0.017497
      5.15614     -3.63281      6.35410        -0.003772      0.003305     -0.000649
      3.46704     -2.41823      8.45676        -0.014582     -0.000557     -0.007966
      6.93446     -1.22309      6.35070        -0.012638      0.013726     -0.012079
      6.25402     -2.56019      8.69845        -0.003407      0.005992     -0.012531
      5.21657      0.06425      8.50480        -0.017523     -0.006242     -0.009920
 -----------------------------------------------------------------------------------
    total drift:                               -0.002908      0.002492      0.009803


--------------------------------------------------------------------------------------------------------



  FREE ENERGIE OF THE ION-ELECTRON SYSTEM (eV)
  ---------------------------------------------------
  free  energy   TOTEN  =     -1103.59239631 eV

  energy  without entropy=    -1103.57704121  energy(sigma->0) =    -1103.58727795
 


--------------------------------------------------------------------------------------------------------


    POTLOK:  cpu time      0.1799: real time      0.0806


--------------------------------------------------------------------------------------------------------




--------------------------------------------------------------------------------------------------------


     LOOP+:  cpu time   3305.8280: real time   3305.5858
    4ORBIT:  cpu time      0.0000: real time      0.0000



 total charge

# of ion       s       p       d       tot
------------------------------------------
    1        0.351   6.222   3.032   9.605
    2        0.369   6.233   3.092   9.693
    3        0.353   6.229   3.050   9.632
    4        0.358   6.239   3.071   9.668
    5        0.359   6.249   3.049   9.657
    6        0.362   6.244   3.083   9.689
    7        0.356   6.239   3.057   9.652
    8        0.357   6.235   3.065   9.657
    9        0.360   6.249   3.059   9.669
   10        0.359   6.241   3.060   9.660
   11        0.354   6.236   3.045   9.635
   12        0.356   6.230   3.061   9.647
   13        0.350   6.210   3.034   9.594
   14        0.358   6.236   3.084   9.678
   15        0.359   6.239   3.075   9.673
   16        0.359   6.237   3.073   9.669
   17        0.368   6.234   3.079   9.681
   18        0.358   6.208   3.107   9.674
   19        0.354   6.234   3.052   9.641
   20        0.358   6.237   3.072   9.668
   21        0.353   6.221   3.018   9.592
   22        0.377   6.239   3.146   9.762
   23        0.360   6.212   3.095   9.667
   24        0.357   6.219   3.072   9.648
   25        0.350   6.222   3.059   9.631
   26        0.358   6.236   3.075   9.669
   27        0.362   6.245   3.088   9.695
   28        0.362   6.242   3.097   9.701
   29        0.354   6.231   3.051   9.637
   30        0.356   6.229   3.077   9.661
   31        0.358   6.243   3.072   9.673
   32        0.360   6.250   3.057   9.667
   33        0.363   6.251   3.074   9.687
   34        0.360   6.242   3.073   9.675
   35        0.360   6.238   3.078   9.676
   36        0.358   6.240   3.075   9.673
   37        0.358   6.239   3.066   9.662
   38        0.359   6.241   3.078   9.678
   39        0.358   6.240   3.055   9.653
   40        0.358   6.238   3.072   9.668
   41        0.360   6.235   3.093   9.687
   42        0.349   6.214   3.033   9.597
   43        0.366   6.229   3.084   9.680
   44        0.355   6.227   3.071   9.653
   45        0.358   6.240   3.051   9.648
   46        0.358   6.240   3.066   9.664
   47        0.359   6.235   3.087   9.680
   48        0.357   6.236   3.064   9.657
   49        0.354   6.224   3.060   9.638
   50        0.354   6.216   3.092   9.663
   51        0.353   6.232   3.051   9.636
   52        0.358   6.240   3.058   9.656
   53        0.359   6.244   3.065   9.669
   54        0.357   6.240   3.040   9.638
   55        0.350   6.216   3.053   9.619
   56        0.355   6.230   3.066   9.652
   57        0.360   6.240   3.064   9.664
   58        0.361   6.242   3.080   9.683
   59        0.359   6.241   3.074   9.674
   60        0.355   6.237   3.052   9.644
   61        0.358   6.233   3.088   9.679
   62        0.360   6.241   3.074   9.675
   63        0.357   6.238   3.062   9.657
   64        0.360   6.238   3.073   9.670
   65        0.358   6.239   3.064   9.660
   66        0.358   6.241   3.058   9.657
   67        0.357   6.240   3.050   9.647
   68        0.359   6.231   3.097   9.688
   69        0.354   6.234   3.052   9.640
   70        0.355   6.234   3.053   9.643
   71        0.358   6.239   3.069   9.667
   72        0.360   6.241   3.084   9.685
   73        0.359   6.237   3.087   9.683
   74        0.357   6.225   3.082   9.664
   75        0.354   6.233   3.045   9.632
   76        0.357   6.235   3.059   9.652
   77        0.357   6.239   3.063   9.660
   78        0.358   6.231   3.074   9.662
   79        0.363   6.222   3.102   9.686
   80        0.354   6.236   3.039   9.629
   81        0.361   6.242   3.069   9.671
   82        0.357   6.240   3.056   9.653
   83        0.354   6.225   3.072   9.651
   84        0.357   6.223   3.101   9.681
   85        0.358   6.235   3.074   9.668
   86        0.359   6.239   3.075   9.672
   87        0.359   6.239   3.072   9.669
   88        0.356   6.233   3.079   9.669
   89        0.356   6.237   3.061   9.654
   90        0.358   6.239   3.065   9.663
   91        0.359   6.241   3.065   9.665
   92        0.354   6.233   3.053   9.641
   93        0.354   6.236   3.043   9.633
   94        0.361   6.237   3.100   9.698
   95        0.359   6.248   3.049   9.656
   96        0.358   6.235   3.070   9.663
   97        0.353   6.234   3.044   9.631
   98        0.354   6.232   3.042   9.628
   99        0.359   6.244   3.069   9.672
  100        0.357   6.232   3.067   9.656
  101        0.356   6.230   3.058   9.644
  102        0.360   6.239   3.080   9.678
  103        0.360   6.235   3.093   9.688
  104        0.358   6.222   3.104   9.683
  105        0.369   6.231   3.109   9.709
  106        0.357   6.240   3.064   9.661
  107        0.359   6.242   3.059   9.660
  108        0.357   6.237   3.068   9.662
  109        0.342   6.203   3.005   9.550
  110        0.353   6.217   3.032   9.603
  111        0.358   6.235   3.083   9.676
  112        0.358   6.237   3.072   9.667
  113        0.360   6.237   3.095   9.691
  114        0.374   6.248   3.098   9.719
  115        0.418   6.340   4.151  10.909
  116        0.426   6.319   4.248  10.992
  117        0.424   6.316   4.246  10.986
  118        0.427   6.317   4.264  11.008
  119        0.426   6.320   4.247  10.994
  120        0.358   6.275   2.111   8.744
  121        0.355   6.273   2.111   8.739
  122        0.356   6.276   2.104   8.736
  123        0.370   6.298   2.154   8.822
  124        0.355   6.278   2.092   8.725
--------------------------------------------------
tot         44.708 773.750 381.5361199.994
 

 total amount of memory used by VASP MPI-rank0  6702056. kBytes
=======================================================================

   base      :      30000. kBytes
   nonl-proj :     799080. kBytes
   fftplans  :      67629. kBytes
   grid      :     159195. kBytes
   one-center:       1928. kBytes
   wavefun   :    5644224. kBytes
 
  
  
 General timing and accounting informations for this job:
 ========================================================
  
                  Total CPU time used (sec):     3416.819
                            User time (sec):     2836.246
                          System time (sec):      580.573
                         Elapsed time (sec):     3416.579
  
                   Maximum memory used (kb):     9955188.
                   Average memory used (kb):          N/A
  
                          Minor page faults:      1207754
                          Major page faults:           11
                 Voluntary context switches:       310407
