124
Lattice="-7.560079518782137 7.562060943398408 7.558757108263703 7.5519590757649055 -7.563782997213921 7.552359248763504 7.560400207638752 7.564103484514047 -7.560478948751022" Properties=species:S:1:pos:R:3:forces:R:3 energy=-1100.538771226114 free_energy=-1100.538771226114 stress="0.004783292112557679 -0.00023830942394519972 0.0004961592391694443 -0.00023830942394519972 0.0028524945362638442 -4.4285171906262534e-05 0.0004961592391694443 -4.4285171906262534e-05 0.004835499671423259" pbc="T T T"
Cr       1.49296602       1.49875833      -1.51563163      -0.00015709       0.00122091       0.00058082
Cr      -0.03537875       2.97034183       2.99284640       0.00144744      -0.00068118       0.00089748
Cr      -1.57490430       4.47359303       4.50586502       0.00073525       0.00015521      -0.00188754
Cr       3.04606071       9.07601595       3.00826269       0.00116502      -0.00043661       0.00049559
Ti       6.05185996      -3.07105076       3.04918285      -0.00011917       0.00064340      -0.00123824
Ti       9.12389752      -0.10076091      -0.11656366       0.00130900       0.00090312       0.00132593
Ti       3.04317390       6.03630387      -3.02158587      -0.00017751       0.00034748      -0.00145124
Ti       7.53897162       1.48800647       1.49980915       0.00174741       0.00170491      -0.00017916
Ti      -0.01051083       6.04648458       0.01925381       0.00008420       0.00141722       0.00134062
Ti       5.99310917       3.11871565       3.02635669       0.00328825      -0.00317527      -0.00166992
Ti       2.97337999      -3.07816644       9.02497017       0.00105197       0.00045686       0.00265140
Ti      -0.03324618       6.00584336       2.88562902       0.00173969      -0.00310503      -0.00044111
Ti      -0.05407834       3.00585999       6.05701506       0.00166716      -0.00126711       0.00076048
Ti       1.56952251       4.47602405       4.44789346       0.00012570       0.00222240       0.00309400
Ti      -4.55351208       4.55879855       7.61578793      -0.00077451       0.00050626      -0.00022375
Ti       0.03768215       9.14832723       2.88342855       0.00243389       0.00140033       0.00059933
V        0.02779931       0.02372198      -0.00885484      -0.00105717       0.00002097       0.00085350
V        2.99281017       2.99467907      -3.01848022      -0.00076786       0.00137945      -0.00073265
V        4.55082960       4.52846287      -4.60208572      -0.00402934       0.00389926       0.00276850
V        6.06842018       6.05343241      -6.07783485       0.00035943       0.00156451       0.00088302
V        1.45040102      -1.46631648       1.54880508       0.00155846      -0.00151919      -0.00119788
V        2.95438172       0.02908479      -0.02277165      -0.00034845      -0.00090933       0.00112846
V        4.44832794       1.61697755      -1.40400213      -0.00050870      -0.00013047      -0.00085062
V        5.98871033       3.14683003      -2.98573487      -0.00002397       0.00065664      -0.00433408
V        7.56248246       4.57350691      -4.54868560       0.00247854       0.00213601       0.00091281
V        3.01437774      -2.99742466       3.03601919       0.00220805      -0.00181494      -0.00075616
V        4.50698108      -1.42139047       1.55538772      -0.00035356       0.00060986       0.00112718
V        5.96995249      -0.05727494       0.04099482      -0.00045027      -0.00182438      -0.00302936
V        7.64321664       1.73409299      -1.43457394       0.00026303      -0.00124200      -0.00262137
V        9.13086343       3.08114229      -3.04863686      -0.00020038       0.00171156      -0.00059485
V        4.48337812      -4.60199262       4.51570236       0.00037746       0.00054464       0.00177089
V        7.54298408      -1.50631237       1.52428631      -0.00163541       0.00126638      -0.00078167
V       10.65219131       1.54824505      -1.55509566       0.00082068       0.00048987      -0.00136397
V        6.05140351      -6.03155375       6.04563559       0.00204731       0.00006752       0.00007031
V        7.62411873      -4.61681552       4.59044482      -0.00060359      -0.00154271       0.00011488
V        9.00816630      -3.06001697       3.00342671       0.00011701      -0.00031091      -0.00060851
V       10.64514788      -1.52352332       1.55726124      -0.00162245      -0.00179262      -0.00246178
V       12.12196685       0.00713798       0.01059220      -0.00058418      -0.00222382       0.00131858
V       -1.44895279       1.52331316       1.51496488       0.00005198      -0.00121538       0.00059809
V        0.02177505       2.98601802      -0.02997468       0.00000787      -0.00089266       0.00123958
V        1.50272223       4.46076727      -1.51046876       0.00017369       0.00047676      -0.00106349
V        4.58041679       7.59303722      -4.57963912       0.00158935      -0.00051499       0.00161039
V       -0.00094511      -0.02007755       3.01660498       0.00041505      -0.00017129       0.00013836
V        1.47536102       1.49998986       1.52921319      -0.00060924       0.00185903      -0.00146948
V        2.98059581       2.99815420      -0.01587241       0.00141381      -0.00088351      -0.00350067
V        4.55519616       4.53192487      -1.46583822       0.00007048      -0.00044298      -0.00135147
V        6.04523290       6.05920633      -3.03930219      -0.00016872      -0.00058748      -0.00087408
V        1.49076271      -1.49016176       4.52501509       0.00142469      -0.00046721       0.00036948
V        2.98879158      -0.00310770       3.02061030       0.00149876       0.00059803       0.00185227
V        4.47509589       1.49309099       1.50328750       0.00031484       0.00220772      -0.00022132
V        5.99555693       3.13138356       0.00076398       0.00070857      -0.00142896      -0.00178752
V        7.55121695       4.60697242      -1.52766036      -0.00023001      -0.00103412       0.00020968
V        3.02723455      -2.99741782       6.01670200      -0.00177958      -0.00041932       0.00107210
V        4.47806153      -1.49747355       4.54892503       0.00103174       0.00004621       0.00222278
V        5.99722715      -0.03169301       3.08507093       0.00091502       0.00313809       0.00049471
V        9.06216722       3.03032636      -0.11545171      -0.00027949       0.00050129       0.00070029
V        4.58098578      -4.57992958       7.50600354      -0.00268242       0.00016045       0.00090035
V        6.03185148      -3.09416316       6.01003649      -0.00056002       0.00122853      -0.00030510
V        7.62625842      -1.50619287       4.56601424      -0.00266373       0.00003024       0.00284617
V        9.10269412       0.00991258       3.01402063      -0.00165663       0.00280347       0.00446542
V       10.61992915       1.52254263       1.52795776      -0.00135266       0.00096375       0.00009073
V       -2.98877172       3.02121671       3.08443958       0.00090665      -0.00071210       0.00088338
V       -1.57909581       4.41705331       1.49999689      -0.00109354      -0.00050609      -0.00097914
V        1.51344808       7.61180540      -1.50496682       0.00182919       0.00007837       0.00139151
V        3.03745486       9.06807289      -3.06000911       0.00017491      -0.00070521       0.00308978
V       -1.47952349       1.46343905       4.46329847      -0.00153603       0.00090717      -0.00000502
V        1.55627166       4.39879294       1.52806285      -0.00231804       0.00262672       0.00210393
V        3.03222487       6.04440789      -0.01990546      -0.00096572       0.00075999      -0.00041751
V        4.59135971       7.58980354      -1.49363469       0.00013840       0.00001081      -0.00046402
V       -0.01349762       0.00901498       6.03089218       0.00018182       0.00014291       0.00215600
V        1.52521353       1.49483816       4.47811076      -0.00072716      -0.00249089       0.00119261
V        3.11583127       2.94868217       3.03550899      -0.00150247       0.00062860      -0.00349092
V        4.49759705       4.61331274       1.50577418      -0.00098176       0.00000593      -0.00152998
V        6.05898659       6.07066020       0.01263649       0.00008195       0.00114659      -0.00290289
V        1.46675612      -1.44859191       7.51605290       0.00127188      -0.00113828       0.00109811
V        3.00852776       0.01536158       6.03326008       0.00193352      -0.00146622       0.00129190
V        4.48585559       1.47953825       4.60582816       0.00292616       0.00243059      -0.00105044
V        7.57987413       4.60016198       1.51009777      -0.00068021      -0.00082882      -0.00307385
V        4.53921987      -1.51207411       7.49635722      -0.00122144       0.00178636       0.00178822
V        6.01775485      -0.08929670       5.96839972       0.00150204       0.00389798       0.00309485
V        7.56336297       1.46338206       4.57751159      -0.00399728       0.00178258      -0.00328812
V        9.00914220       3.02091182       3.08908711       0.00126568       0.00009391      -0.00114512
V       -4.57081614       4.55678946       4.52309929      -0.00009301      -0.00152252       0.00163816
V       -3.04398928       5.99683501       3.05128271       0.00050543      -0.00022001      -0.00196352
V       -1.72266674       7.65748156       1.39260422       0.00321544       0.00037247      -0.00003223
V       -0.06105021       9.13802175      -0.03735383      -0.00559931      -0.00082617      -0.00446488
V       -2.94863873       3.01606577       5.99673408      -0.00081692       0.00069881       0.00098297
V        1.67096197       7.64157833       1.46753090      -0.00184357       0.00048730       0.00038899
V        3.03009001       9.07463251      -0.02874114      -0.00269660       0.00005246       0.00280493
V       -1.53859524       1.44775095       7.60304089      -0.00027956       0.00146967      -0.00125676
V        3.07989647       6.06702897       2.97756657       0.00063009      -0.00004107       0.00098241
V        4.55117022       7.56250562       1.51509718      -0.00099705      -0.00171405       0.00171569
V        0.01217868      -0.00968658       9.07949507      -0.00159530      -0.00195668       0.00198330
V        1.54192349       1.46101089       7.60005445      -0.00094914       0.00017057       0.00184416
V        2.97662282       2.94626767       6.09293012       0.00038375       0.00249971      -0.00037338
V        4.54489278       4.56564182       4.66137383       0.00230569      -0.00301099       0.00299527
V        6.06944582       6.05251394       3.06854822      -0.00291558       0.00267051      -0.00232706
V        1.47759429      -1.49052514      10.61352394       0.00058071       0.00092129       0.00104051
V        3.00758438      -0.02629294       9.08468364      -0.00008362      -0.00000515      -0.00103728
V        4.56348755       1.57670198       7.48170524       0.00167716       0.00349379      -0.00434815
V        7.54111954       4.61373436       4.62288111      -0.00915647      -0.00319404      -0.00227016
V       -6.11164250       6.09116637       6.01882505       0.00053244       0.00227026       0.00276786
V       -4.58734876       7.58980748       4.55986171       0.00015078      -0.00326876       0.00117667
V       -3.13100476       9.14950130       2.97925642      -0.00018857       0.00041464      -0.00052889
V       -1.55949037      10.65858540       1.54915859       0.00032561      -0.00096585       0.00249876
V       -0.05913545      12.10048373      -0.00759788      -0.00186464      -0.00062643      -0.00347289
V       -3.06972655       5.99775886       6.06024399       0.00141240       0.00182655       0.00060596
V        1.53525670      10.60910930       1.53203811      -0.00259138      -0.00136260      -0.00128711
V       -3.06010053       2.88374483       9.12713905      -0.00174969       0.00034814       0.00075853
V       -1.59567099       4.53213007       7.62667863      -0.00049190      -0.00090253       0.00123940
V       -0.08298999       5.79403879       6.09979798       0.00099519      -0.00037601      -0.00104566
V        1.67314486       7.58599688       4.47381725      -0.00138337      -0.00034655       0.00082214
V       -1.47419418       1.48878357      10.59179169      -0.00160455      -0.00058305      -0.00070564
V        0.01033276       2.95809408       9.04480385      -0.00085721       0.00123599       0.00027435
V        1.55980241       4.54654150       7.61256245       0.00085574       0.00027961      -0.00034344
V        3.18875789       5.98842559       5.99337812       0.00262255      -0.00500119       0.00027747
V        4.54958601       7.58295354       4.49154565      -0.00241965       0.00178339       0.00198693
V        0.00798523       0.02641453      12.10482829       0.00285389       0.00153411       0.00183092
V        1.50418205       1.49162866      10.57422010      -0.00065412       0.00065331       0.00162988
V        3.00545097       3.03530021       9.04453834       0.00393569      -0.00212208      -0.00083752
V        4.62370644       4.49900878       7.52026895       0.00354390      -0.00712107      -0.00506705
V        6.07083521       6.18516119       6.06703751       0.00151039      -0.00169573      -0.00318054
W        1.51238418      10.58685862      -1.52600294       0.00674803      -0.00201754      -0.00169120
Zr      -1.43009053       7.63527683       4.64951409      -0.00238688      -0.00205828      -0.00026237
