 vasp.6.4.2 20Jul23 (build Jun 13 2024 17:40:20) complex                         
 executed on    LinuxNV_CrayMPICH date 2025.01.16  07:49:50
 running   64 mpi-ranks, with    1 threads/rank, on    1 nodes
 distrk:  each k-point on   64 cores,    1 groups
 distr:  one band on NCORE=   1 cores,   64 groups


--------------------------------------------------------------------------------------------------------


 INCAR:
   PREC = Accurate
   ENCUT = 520
   EDIFF = 1e-06
   ISMEAR = 1
   ISIF = 3
   SIGMA = 0.2
   NSW = 100
   IBRION = 2
   LWAVE = False
   LCHARG = True
   LREAL = False
   ALGO = Normal

 POTCAR:    PAW_PBE Cr_pv 02Aug2007               
 POTCAR:    PAW_PBE Ti_pv 07Sep2000               
 POTCAR:    PAW_PBE V_pv 07Sep2000                
 POTCAR:    PAW_PBE W_sv 04Sep2015                
 POTCAR:    PAW_PBE Zr_sv 04Jan2005               
 POTCAR:    PAW_PBE Cr_pv 02Aug2007               
   SHA256 =  c9a7df34d3cdbacf1090e328ef39c0b420964e11c23f63548d1ac9dd218cdba0 Cr_pv/POTCAR          
   COPYR  = (c) Copyright 02Aug2007 Georg Kresse                                                    
   COPYR  = This file is part of the software VASP. Any use, copying, and all other rights are regul
   COPYR  = If you do not have a valid VASP license, you may not use, copy or distribute this file. 
   VRHFIN =Cr : p6d5s1                                                                              
   LEXCH  = PE                                                                                      
   EATOM  =  1647.9177 eV,  121.1185 Ry                                                             
                                                                                                    
   TITEL  = PAW_PBE Cr_pv 02Aug2007                                                                 
   LULTRA =        F    use ultrasoft PP ?                                                          
   IUNSCR =        1    unscreen: 0-lin 1-nonlin 2-no                                               
   RPACOR =    2.080    partial core radius                                                         
   POMASS =   51.996; ZVAL   =   12.000    mass and valenz                                          
   RCORE  =    2.300    outmost cutoff radius                                                       
   RWIGS  =    2.500; RWIGS  =    1.323    wigner-seitz radius (au A)                               
   ENMAX  =  265.681; ENMIN  =  199.261 eV                                                          
   ICORE  =        3    local potential                                                             
   LCOR   =        T    correct aug charges                                                         
   LPAW   =        T    paw PP                                                                      
   EAUG   =  519.424                                                                                
   DEXC   =    0.000                                                                                
   RMAX   =    2.356    core radius for proj-oper                                                   
   RAUG   =    1.300    factor for augmentation sphere                                              
   RDEP   =    2.447    radius for radial grids                                                     
   RDEPT  =    1.882    core radius for aug-charge                                                  
                                                                                                    
   Atomic configuration                                                                             
    8 entries                                                                                       
     n  l   j            E        occ.                                                              
     1  0  0.50     -5880.4963   2.0000                                                             
     2  0  0.50      -667.0865   2.0000                                                             
     2  1  1.50      -560.6250   6.0000                                                             
     3  0  0.50       -73.9860   2.0000                                                             
     3  1  1.50       -45.4378   6.0000                                                             
     3  2  2.50        -2.9137   5.0000                                                             
     4  0  0.50        -4.0071   1.0000                                                             
     4  3  2.50        -1.3606   0.0000                                                             
   Description                                                                                      
     l       E           TYP  RCUT    TYP  RCUT                                                     
     1    -45.4377911     23  2.000                                                                 
     1      1.3605826     23  2.000                                                                 
     2     -2.9136672     23  2.300                                                                 
     2     -4.2742498     23  2.300                                                                 
     0     -4.0071320     23  2.300                                                                 
     0      9.4498803     23  2.300                                                                 
     3      2.7211652     23  2.300                                                                 
  local pseudopotential read in
  partial core-charges read in
  partial kinetic energy density read in
  atomic valenz-charges read in
  non local Contribution for L=            1  read in
    real space projection operators read in
  non local Contribution for L=            1  read in
    real space projection operators read in
  non local Contribution for L=            2  read in
    real space projection operators read in
  non local Contribution for L=            2  read in
    real space projection operators read in
  non local Contribution for L=            0  read in
    real space projection operators read in
  non local Contribution for L=            0  read in
    real space projection operators read in
    PAW grid and wavefunctions read in
 
   number of l-projection  operators is LMAX  =            6
   number of lm-projection operators is LMMAX =           18
 
 POTCAR:    PAW_PBE Ti_pv 07Sep2000               
   SHA256 =  f757a1b2c6d082f4c628fa3d987464a8763bf92e53844ac0500b0e2ddc9ce5c0 Ti_pv/POTCAR          
   COPYR  = (c) Copyright 07Sep2000 Georg Kresse                                                    
   COPYR  = This file is part of the software VASP. Any use, copying, and all other rights are regul
   COPYR  = If you do not have a valid VASP license, you may not use, copy or distribute this file. 
   VRHFIN =Ti: d3 s1                                                                                
   LEXCH  = PE                                                                                      
   EATOM  =  1042.5995 eV,   76.6289 Ry                                                             
                                                                                                    
   TITEL  = PAW_PBE Ti_pv 07Sep2000                                                                 
   LULTRA =        F    use ultrasoft PP ?                                                          
   IUNSCR =        1    unscreen: 0-lin 1-nonlin 2-no                                               
   RPACOR =    2.200    partial core radius                                                         
   POMASS =   47.880; ZVAL   =   10.000    mass and valenz                                          
   RCORE  =    2.500    outmost cutoff radius                                                       
   RWIGS  =    2.500; RWIGS  =    1.323    wigner-seitz radius (au A)                               
   ENMAX  =  222.335; ENMIN  =  166.751 eV                                                          
   RCLOC  =    1.701    cutoff for local pot                                                        
   LCOR   =        T    correct aug charges                                                         
   LPAW   =        T    paw PP                                                                      
   EAUG   =  482.848                                                                                
   DEXC   =    0.000                                                                                
   RMAX   =    2.564    core radius for proj-oper                                                   
   RAUG   =    1.300    factor for augmentation sphere                                              
   RDEP   =    2.538    radius for radial grids                                                     
   RDEPT  =    1.952    core radius for aug-charge                                                  
                                                                                                    
   Atomic configuration                                                                             
    8 entries                                                                                       
     n  l   j            E        occ.                                                              
     1  0  0.50     -4865.3608   2.0000                                                             
     2  0  0.50      -533.1368   2.0000                                                             
     2  1  1.50      -440.5031   6.0000                                                             
     3  0  0.50       -59.3186   2.0000                                                             
     3  1  1.50       -35.7012   6.0000                                                             
     3  2  2.50        -1.9157   3.0000                                                             
     4  0  0.50        -3.7291   1.0000                                                             
     4  3  2.50        -1.3606   0.0000                                                             
   Description                                                                                      
     l       E           TYP  RCUT    TYP  RCUT                                                     
     1    -35.7012140     23  2.300                                                                 
     1     -1.3605826     23  2.300                                                                 
     2     -1.9156996     23  2.500                                                                 
     2     -0.4063033     23  2.500                                                                 
     0     -3.7290856     23  2.500                                                                 
     0     20.4087390     23  2.500                                                                 
  local pseudopotential read in
  partial core-charges read in
  partial kinetic energy density read in
  atomic valenz-charges read in
  non local Contribution for L=            1  read in
    real space projection operators read in
  non local Contribution for L=            1  read in
    real space projection operators read in
  non local Contribution for L=            2  read in
    real space projection operators read in
  non local Contribution for L=            2  read in
    real space projection operators read in
  non local Contribution for L=            0  read in
    real space projection operators read in
  non local Contribution for L=            0  read in
    real space projection operators read in
    PAW grid and wavefunctions read in
 
   number of l-projection  operators is LMAX  =            6
   number of lm-projection operators is LMMAX =           18
 
 POTCAR:    PAW_PBE V_pv 07Sep2000                
   SHA256 =  1175d3c8cb4ffd1d150a520fa74fae5c3ec72c0849b5615a94a5372dd2cf07f7 V_pv/POTCAR           
   COPYR  = (c) Copyright 07Sep2000 Georg Kresse                                                    
   COPYR  = This file is part of the software VASP. Any use, copying, and all other rights are regul
   COPYR  = If you do not have a valid VASP license, you may not use, copy or distribute this file. 
   VRHFIN =V: p6 d4 s1                                                                              
   LEXCH  = PE                                                                                      
   EATOM  =  1321.6206 eV,   97.1364 Ry                                                             
                                                                                                    
   TITEL  = PAW_PBE V_pv 07Sep2000                                                                  
   LULTRA =        F    use ultrasoft PP ?                                                          
   IUNSCR =        1    unscreen: 0-lin 1-nonlin 2-no                                               
   RPACOR =    1.700    partial core radius                                                         
   POMASS =   50.941; ZVAL   =   11.000    mass and valenz                                          
   RCORE  =    2.300    outmost cutoff radius                                                       
   RWIGS  =    2.300; RWIGS  =    1.217    wigner-seitz radius (au A)                               
   ENMAX  =  263.673; ENMIN  =  197.755 eV                                                          
   RCLOC  =    1.779    cutoff for local pot                                                        
   LCOR   =        T    correct aug charges                                                         
   LPAW   =        T    paw PP                                                                      
   EAUG   =  598.473                                                                                
   DEXC   =    0.000                                                                                
   RMAX   =    2.359    core radius for proj-oper                                                   
   RAUG   =    1.300    factor for augmentation sphere                                              
   RDEP   =    2.430    radius for radial grids                                                     
   RDEPT  =    1.700    core radius for aug-charge                                                  
                                                                                                    
   Atomic configuration                                                                             
    8 entries                                                                                       
     n  l   j            E        occ.                                                              
     1  0  0.50     -5360.7193   2.0000                                                             
     2  0  0.50      -598.4546   2.0000                                                             
     2  1  1.50      -499.0155   6.0000                                                             
     3  0  0.50       -66.5711   2.0000                                                             
     3  1  1.50       -40.5282   6.0000                                                             
     3  2  2.50        -2.4291   4.0000                                                             
     4  0  0.50        -3.8743   1.0000                                                             
     4  3  2.50        -1.3606   0.0000                                                             
   Description                                                                                      
     l       E           TYP  RCUT    TYP  RCUT                                                     
     1    -40.5282431     23  2.000                                                                 
     1      5.4423304     23  2.000                                                                 
     2     -2.4290905     23  2.300                                                                 
     2     -1.0472488     23  2.300                                                                 
     0     -3.8742754     23  2.300                                                                 
     0     27.2116520     23  2.300                                                                 
  local pseudopotential read in
  partial core-charges read in
  partial kinetic energy density read in
  atomic valenz-charges read in
  non local Contribution for L=            1  read in
    real space projection operators read in
  non local Contribution for L=            1  read in
    real space projection operators read in
  non local Contribution for L=            2  read in
    real space projection operators read in
  non local Contribution for L=            2  read in
    real space projection operators read in
  non local Contribution for L=            0  read in
    real space projection operators read in
  non local Contribution for L=            0  read in
    real space projection operators read in
    PAW grid and wavefunctions read in
 
   number of l-projection  operators is LMAX  =            6
   number of lm-projection operators is LMMAX =           18
 
 POTCAR:    PAW_PBE W_sv 04Sep2015                
   SHA256 =  931c2d770f65867ef30f3db3421922900fc0890ebac5c3e12f63b6a2064023d7 W_sv/POTCAR           
   COPYR  = (c) Copyright 04Sep2015 Georg Kresse                                                    
   COPYR  = This file is part of the software VASP. Any use, copying, and all other rights are regul
   COPYR  = If you do not have a valid VASP license, you may not use, copy or distribute this file. 
   VRHFIN =W : 5p6s5d                                                                               
   LEXCH  = PE                                                                                      
   EATOM  =  1865.5791 eV,  137.1162 Ry                                                             
                                                                                                    
   TITEL  = PAW_PBE W_sv 04Sep2015                                                                  
   LULTRA =        F    use ultrasoft PP ?                                                          
   IUNSCR =        1    unscreen: 0-lin 1-nonlin 2-no                                               
   RPACOR =    2.330    partial core radius                                                         
   POMASS =  183.850; ZVAL   =   14.000    mass and valenz                                          
   RCORE  =    2.500    outmost cutoff radius                                                       
   RWIGS  =    2.750; RWIGS  =    1.455    wigner-seitz radius (au A)                               
   ENMAX  =  223.057; ENMIN  =  167.293 eV                                                          
   ICORE  =        3    local potential                                                             
   LCOR   =        T    correct aug charges                                                         
   LPAW   =        T    paw PP                                                                      
   EAUG   =  373.438                                                                                
   DEXC   =    0.000                                                                                
   RMAX   =    2.565    core radius for proj-oper                                                   
   RAUG   =    1.300    factor for augmentation sphere                                              
   RDEP   =    2.539    radius for radial grids                                                     
   RDEPT  =    2.126    core radius for aug-charge                                                  
                                                                                                    
   Atomic configuration                                                                             
   15 entries                                                                                       
     n  l   j            E        occ.                                                              
     1  0  0.50    -69465.5834   2.0000                                                             
     2  0  0.50    -11986.2640   2.0000                                                             
     2  1  1.50    -10479.8613   6.0000                                                             
     3  0  0.50     -2759.0756   2.0000                                                             
     3  1  1.50     -2313.1855   6.0000                                                             
     3  2  2.50     -1801.1183  10.0000                                                             
     4  0  0.50      -567.6789   2.0000                                                             
     4  1  1.50      -421.4692   6.0000                                                             
     4  2  2.50      -236.3471  10.0000                                                             
     4  3  3.50       -31.2665  14.0000                                                             
     5  0  0.50       -77.1084   2.0000                                                             
     6  0  0.50        -5.1438   1.0000                                                             
     5  1  1.50       -41.3856   6.0000                                                             
     5  2  2.50        -3.3185   5.0000                                                             
     5  3  2.50        -1.3606   0.0000                                                             
   Description                                                                                      
     l       E           TYP  RCUT    TYP  RCUT                                                     
     0    -77.1084470     23  2.100                                                                 
     0     -5.1437956     23  2.300                                                                 
     1    -41.3855615     23  2.500                                                                 
     1     -2.7211652     23  2.500                                                                 
     2     -3.3185025     23  2.500                                                                 
     2     -1.5965151     23  2.500                                                                 
     3     -1.3605826     23  2.500                                                                 
  local pseudopotential read in
  partial core-charges read in
  partial kinetic energy density read in
  kinetic energy density of atom read in
  atomic valenz-charges read in
  non local Contribution for L=            0  read in
    real space projection operators read in
  non local Contribution for L=            0  read in
    real space projection operators read in
  non local Contribution for L=            1  read in
    real space projection operators read in
  non local Contribution for L=            1  read in
    real space projection operators read in
  non local Contribution for L=            2  read in
    real space projection operators read in
  non local Contribution for L=            2  read in
    real space projection operators read in
    PAW grid and wavefunctions read in
 
   number of l-projection  operators is LMAX  =            6
   number of lm-projection operators is LMMAX =           18
 
 POTCAR:    PAW_PBE Zr_sv 04Jan2005               
   SHA256 =  25aed69cb10325f9d37c5c68912b61a17387d1f8e4f1d804860ffa10c8a4bf76 Zr_sv/POTCAR          
   COPYR  = (c) Copyright 04Jan2005 Georg Kresse                                                    
   COPYR  = This file is part of the software VASP. Any use, copying, and all other rights are regul
   COPYR  = If you do not have a valid VASP license, you may not use, copy or distribute this file. 
   VRHFIN =Zr: 4s4p5s4d                                                                             
   LEXCH  = PE                                                                                      
   EATOM  =  1284.2219 eV,   94.3876 Ry                                                             
                                                                                                    
   TITEL  = PAW_PBE Zr_sv 04Jan2005                                                                 
   LULTRA =        F    use ultrasoft PP ?                                                          
   IUNSCR =        1    unscreen: 0-lin 1-nonlin 2-no                                               
   RPACOR =    2.200    partial core radius                                                         
   POMASS =   91.224; ZVAL   =   12.000    mass and valenz                                          
   RCORE  =    2.500    outmost cutoff radius                                                       
   RWIGS  =    3.070; RWIGS  =    1.625    wigner-seitz radius (au A)                               
   ENMAX  =  229.898; ENMIN  =  172.424 eV                                                          
   ICORE  =        3    local potential                                                             
   LCOR   =        T    correct aug charges                                                         
   LPAW   =        T    paw PP                                                                      
   EAUG   =  461.257                                                                                
   DEXC   =    0.000                                                                                
   RMAX   =    2.561    core radius for proj-oper                                                   
   RAUG   =    1.300    factor for augmentation sphere                                              
   RDEP   =    2.597    radius for radial grids                                                     
   RDEPT  =    2.007    core radius for aug-charge                                                  
                                                                                                    
   Atomic configuration                                                                             
   11 entries                                                                                       
     n  l   j            E        occ.                                                              
     1  0  0.50    -17820.0161   2.0000                                                             
     2  0  0.50     -2467.0882   2.0000                                                             
     2  1  1.50     -2199.6095   6.0000                                                             
     3  0  0.50      -402.4863   2.0000                                                             
     3  1  1.50      -315.3675   6.0000                                                             
     3  2  2.50      -172.4472  10.0000                                                             
     4  0  0.50       -52.4146   2.0000                                                             
     5  0  0.50        -3.8421   1.0000                                                             
     4  1  1.50       -30.5054   6.0000                                                             
     4  2  2.50        -2.3341   3.0000                                                             
     4  3  2.50        -1.3606   0.0000                                                             
   Description                                                                                      
     l       E           TYP  RCUT    TYP  RCUT                                                     
     0    -52.4145962     23  2.200                                                                 
     0     -3.8421270     23  2.500                                                                 
     1    -30.5053914     23  2.200                                                                 
     1     20.4087390     23  2.200                                                                 
     2     -2.3340816     23  2.500                                                                 
     2     -0.6120942     23  2.500                                                                 
     3     -4.0817478     23  2.500                                                                 
  local pseudopotential read in
  partial core-charges read in
  partial kinetic energy density read in
  atomic valenz-charges read in
  non local Contribution for L=            0  read in
    real space projection operators read in
  non local Contribution for L=            0  read in
    real space projection operators read in
  non local Contribution for L=            1  read in
    real space projection operators read in
  non local Contribution for L=            1  read in
    real space projection operators read in
  non local Contribution for L=            2  read in
    real space projection operators read in
  non local Contribution for L=            2  read in
    real space projection operators read in
    PAW grid and wavefunctions read in
 
   number of l-projection  operators is LMAX  =            6
   number of lm-projection operators is LMMAX =           18
 
 -----------------------------------------------------------------------------
|                                                                             |
|               ----> ADVICE to this user running VASP <----                  |
|                                                                             |
|     You have a (more or less) 'large supercell' and for larger cells it     |
|     might be more efficient to use real-space projection operators.         |
|     Therefore, try LREAL= Auto in the INCAR file.                           |
|     Mind: For very accurate calculation, you might also keep the            |
|     reciprocal projection scheme (i.e. LREAL=.FALSE.).                      |
|                                                                             |
 -----------------------------------------------------------------------------

  PAW_PBE Cr_pv 02Aug2007               :
 energy of atom  1       EATOM=-1647.9177
 kinetic energy error for atom=    0.0057 (will be added to EATOM!!)
  PAW_PBE Ti_pv 07Sep2000               :
 energy of atom  2       EATOM=-1042.5995
 kinetic energy error for atom=    0.0019 (will be added to EATOM!!)
  PAW_PBE V_pv 07Sep2000                :
 energy of atom  3       EATOM=-1321.6206
 kinetic energy error for atom=    0.0054 (will be added to EATOM!!)
  PAW_PBE W_sv 04Sep2015                :
 energy of atom  4       EATOM=-1865.5791
 kinetic energy error for atom=    0.0026 (will be added to EATOM!!)
  PAW_PBE Zr_sv 04Jan2005               :
 energy of atom  5       EATOM=-1284.2219
 kinetic energy error for atom=    0.0043 (will be added to EATOM!!)
 
 
 POSCAR: Cr Ti V  W  Zr
  positions in cartesian coordinates
  No initial velocities read in
 exchange correlation table for  LEXCH =        8
   RHO(1)=    0.500       N(1)  =     2000
   RHO(2)=  100.500       N(2)  =     4000

 VTST: version 4.1, (05/19/21)

 CHAIN: initializing optimizer
 
 OPT: Using VASP Conjugate-Gradient optimizer
 CHAIN: Read ICHAIN             0
 
 POSCAR: Cr Ti V  W  Zr
  positions in cartesian coordinates
  No initial velocities read in
 


--------------------------------------------------------------------------------------------------------


 ion  position               nearest neighbor table
   1  0.000  0.750  0.000-  27 2.61  32 2.61  38 2.61 110 2.61 116 2.61 118 2.61 122 2.61 123 2.61
                            37 3.01 117 3.01  12 3.01  58 3.01  33 3.01 127 3.01
   2  0.375  0.375  0.125-  46 2.61  47 2.61  52 2.61  53 2.61  72 2.61  74 2.61  80 2.61  82 2.61
                             3 3.01  21 3.01  73 3.01  48 3.01  51 3.01  40 3.01
   3  0.375  0.625  0.125-  52 2.61  53 2.61  58 2.61  60 2.61  80 2.61  82 2.61  88 2.61  90 2.61
                            57 3.01  81 3.01   2 3.01  59 3.01  27 3.01 124 3.01
   4  0.750  0.250  0.500-  10 2.61  68 2.61  75 2.61  77 2.61  99 2.61 105 2.61 106 2.61 128 2.61
                           104 3.01  23 3.01  76 3.01 107 3.01 113 3.01 100 3.01
   5  0.000  0.250  0.250-  13 2.61  15 2.61  21 2.61  22 2.61  97 2.61  99 2.61 103 2.61 105 2.61
                            47 3.01  14 3.01  20 3.01  23 3.01 104 3.01  28 3.01
   6  0.125  0.625  0.375-   9 2.61  28 2.61  29 2.61  33 2.61  35 2.61  53 2.61  54 2.61  60 2.61
                            27 3.01  30 3.01  22 3.01  34 3.01 112 3.01 124 3.01
   7  0.250  0.000  0.500-  15 2.61  17 2.61  34 2.61  36 2.61  42 2.61  43 2.61  61 2.61  62 2.61
                             9 3.01   8 3.01  44 3.01  16 3.01  41 3.01  69 3.01
   8  0.250  0.250  0.500-  15 2.61  17 2.61  22 2.61  24 2.61  42 2.61  43 2.61  48 2.61  49 2.61
                            47 3.01  23 3.01   7 3.01  50 3.01  54 3.01  76 3.01
   9  0.250  0.750  0.500-   6 2.61  30 2.61  34 2.61  36 2.61  55 2.61  61 2.61  62 2.61 124 2.61
                            60 3.01   7 3.01  54 3.01  63 3.01  92 3.01  35 3.01
  10  0.875  0.125  0.625-   4 2.61  16 2.61  18 2.61  23 2.61  25 2.61 100 2.61 101 2.61 107 2.61
                            99 3.01 106 3.01  17 3.01 125 3.01 126 3.01 128 3.01
  11  0.750  0.750  0.250-  81 2.61  83 2.61  89 2.61  91 2.61 110 2.61 112 2.61 118 2.61 119 2.61
                           111 3.01  33 3.01 117 3.01  98 3.01  90 3.01 120 3.01
  12  0.000  0.000  0.000-  13 2.61  19 2.61  38 2.61  97 2.61 118 2.61 122 2.61 123 2.61 125 2.61
                             1 3.01
  13  0.125  0.125  0.125-   5 2.61  12 2.61  14 2.61  20 2.61  39 2.61  41 2.61  46 2.61  47 2.61
                           123 3.01
  14  0.000  0.000  0.250-  13 2.61  15 2.61  34 2.61  97 2.61  99 2.61 118 2.61 119 2.61 123 2.61
                             5 3.01
  15  0.125  0.125  0.375-   5 2.61   7 2.61   8 2.61  14 2.61  16 2.61  23 2.61  41 2.61  47 2.61

  16  0.000  0.000  0.500-  10 2.61  15 2.61  17 2.61  34 2.61  36 2.61  99 2.61 119 2.61 126 2.61
                             7 3.01
  17  0.125  0.125  0.625-   7 2.61   8 2.61  16 2.61  18 2.61  23 2.61  25 2.61  44 2.61  50 2.61
                            10 3.01
  18  0.000  0.000  0.750-  10 2.61  17 2.61  19 2.61  36 2.61  38 2.61 122 2.61 125 2.61 126 2.61

  19  0.125  0.125  0.875-  12 2.61  18 2.61  20 2.61  25 2.61  39 2.61  44 2.61  46 2.61  50 2.61
                           125 3.01
  20  0.000  0.250  0.000-  13 2.61  19 2.61  21 2.61  26 2.61  97 2.61 103 2.61 108 2.61 125 2.61
                             5 3.01 127 3.01
  21  0.125  0.375  0.125-   5 2.61  20 2.61  28 2.61  46 2.61  47 2.61  52 2.61  53 2.61 127 2.61
                             2 3.01
  22  0.125  0.375  0.375-   5 2.61   8 2.61  23 2.61  28 2.61  29 2.61  47 2.61  53 2.61  54 2.61
                             6 3.01
  23  0.000  0.250  0.500-  10 2.61  15 2.61  17 2.61  22 2.61  24 2.61  99 2.61 105 2.61 106 2.61
                             8 3.01   4 3.01   5 3.01
  24  0.125  0.375  0.625-   8 2.61  23 2.61  25 2.61  29 2.61  31 2.61  50 2.61  54 2.61  56 2.61

  25  0.000  0.250  0.750-  10 2.61  17 2.61  19 2.61  24 2.61  26 2.61 106 2.61 108 2.61 125 2.61

  26  0.125  0.375  0.875-  20 2.61  25 2.61  31 2.61  46 2.61  50 2.61  52 2.61  56 2.61 127 2.61

  27  0.125  0.625  0.125-   1 2.61  28 2.61  33 2.61  52 2.61  53 2.61  58 2.61  60 2.61 127 2.61
                             6 3.01 123 3.01   3 3.01
  28  0.000  0.500  0.250-   6 2.61  21 2.61  22 2.61  27 2.61 103 2.61 105 2.61 110 2.61 112 2.61
                             5 3.01 127 3.01
  29  0.000  0.500  0.500-   6 2.61  22 2.61  24 2.61  30 2.61 105 2.61 106 2.61 112 2.61 114 2.61

  30  0.125  0.625  0.625-   9 2.61  29 2.61  31 2.61  35 2.61  37 2.61  54 2.61  56 2.61  63 2.61
                             6 3.01
  31  0.000  0.500  0.750-  24 2.61  26 2.61  30 2.61  32 2.61 106 2.61 108 2.61 114 2.61 116 2.61
                           127 3.01
  32  0.125  0.625  0.875-   1 2.61  31 2.61  37 2.61  52 2.61  56 2.61  58 2.61  63 2.61 127 2.61

  33  0.000  0.750  0.250-   6 2.61  27 2.61  34 2.61 110 2.61 112 2.61 118 2.61 119 2.61 123 2.61
                            11 3.01   1 3.01
  34  0.125  0.875  0.375-   7 2.61   9 2.61  14 2.61  16 2.61  33 2.61  35 2.61  41 2.61  60 2.61
                             6 3.01 123 3.01
  35  0.000  0.750  0.500-   6 2.61  30 2.61  34 2.61  36 2.61 112 2.61 114 2.61 119 2.61 126 2.61
                             9 3.01
  36  0.125  0.875  0.625-   7 2.61   9 2.61  16 2.61  18 2.61  35 2.61  37 2.61  44 2.61  63 2.61
                           126 3.01
  37  0.000  0.750  0.750-  30 2.61  32 2.61  36 2.61  38 2.61 114 2.61 116 2.61 122 2.61 126 2.61
                             1 3.01
  38  0.125  0.875  0.875-   1 2.61  12 2.61  18 2.61  37 2.61  39 2.61  44 2.61  58 2.61  63 2.61
                           123 3.01
  39  0.250  0.000  0.000-  13 2.61  19 2.61  38 2.61  40 2.61  45 2.61  59 2.61  64 2.61 123 2.61

  40  0.375  0.125  0.125-  39 2.61  41 2.61  46 2.61  47 2.61  65 2.61  67 2.61  72 2.61  74 2.61
                             2 3.01
  41  0.250  0.000  0.250-  13 2.61  15 2.61  34 2.61  40 2.61  42 2.61  59 2.61  61 2.61 123 2.61
                             7 3.01
  42  0.375  0.125  0.375-   7 2.61   8 2.61  41 2.61  47 2.61  67 2.61  69 2.61  74 2.61  76 2.61

  43  0.375  0.125  0.625-   7 2.61   8 2.61  44 2.61  50 2.61  69 2.61  70 2.61  76 2.61  78 2.61
                           128 3.01
  44  0.250  0.000  0.750-  17 2.61  19 2.61  36 2.61  38 2.61  43 2.61  45 2.61  62 2.61  64 2.61
                             7 3.01
  45  0.375  0.125  0.875-  39 2.61  44 2.61  46 2.61  50 2.61  65 2.61  70 2.61  72 2.61  78 2.61

  46  0.250  0.250  0.000-   2 2.61  13 2.61  19 2.61  21 2.61  26 2.61  40 2.61  45 2.61  51 2.61

  47  0.250  0.250  0.250-   2 2.61  13 2.61  15 2.61  21 2.61  22 2.61  40 2.61  42 2.61  48 2.61
                             8 3.01   5 3.01
  48  0.375  0.375  0.375-   8 2.61  47 2.61  53 2.61  54 2.61  74 2.61  76 2.61  82 2.61  84 2.61
                             2 3.01 124 3.01
  49  0.375  0.375  0.625-   8 2.61  50 2.61  54 2.61  56 2.61  76 2.61  78 2.61  84 2.61  86 2.61

  50  0.250  0.250  0.750-  17 2.61  19 2.61  24 2.61  26 2.61  43 2.61  45 2.61  49 2.61  51 2.61
                             8 3.01
  51  0.375  0.375  0.875-  46 2.61  50 2.61  52 2.61  56 2.61  72 2.61  78 2.61  80 2.61  86 2.61
                             2 3.01
  52  0.250  0.500  0.000-   2 2.61   3 2.61  21 2.61  26 2.61  27 2.61  32 2.61  51 2.61  57 2.61
                           127 3.01
  53  0.250  0.500  0.250-   2 2.61   3 2.61   6 2.61  21 2.61  22 2.61  27 2.61  48 2.61 124 2.61

  54  0.250  0.500  0.500-   6 2.61  22 2.61  24 2.61  30 2.61  48 2.61  49 2.61  55 2.61 124 2.61
                             9 3.01   8 3.01
  55  0.375  0.625  0.625-   9 2.61  54 2.61  56 2.61  63 2.61  84 2.61  86 2.61  92 2.61  94 2.61
                           124 3.01
  56  0.250  0.500  0.750-  24 2.61  26 2.61  30 2.61  32 2.61  49 2.61  51 2.61  55 2.61  57 2.61

  57  0.375  0.625  0.875-  52 2.61  56 2.61  58 2.61  63 2.61  80 2.61  86 2.61  88 2.61  94 2.61
                             3 3.01
  58  0.250  0.750  0.000-   3 2.61  27 2.61  32 2.61  38 2.61  57 2.61  59 2.61  64 2.61 123 2.61
                             1 3.01
  59  0.375  0.875  0.125-  39 2.61  41 2.61  58 2.61  60 2.61  65 2.61  67 2.61  88 2.61  90 2.61
                             3 3.01 123 3.01
  60  0.250  0.750  0.250-   3 2.61   6 2.61  27 2.61  34 2.61  59 2.61  61 2.61 123 2.61 124 2.61
                             9 3.01
  61  0.375  0.875  0.375-   7 2.61   9 2.61  41 2.61  60 2.61  67 2.61  69 2.61  90 2.61  92 2.61
                           124 3.01
  62  0.375  0.875  0.625-   7 2.61   9 2.61  44 2.61  63 2.61  69 2.61  70 2.61  92 2.61  94 2.61

  63  0.250  0.750  0.750-  30 2.61  32 2.61  36 2.61  38 2.61  55 2.61  57 2.61  62 2.61  64 2.61
                             9 3.01
  64  0.375  0.875  0.875-  39 2.61  44 2.61  58 2.61  63 2.61  65 2.61  70 2.61  88 2.61  94 2.61

  65  0.500  0.000  0.000-  40 2.61  45 2.61  59 2.61  64 2.61  66 2.61  71 2.61  89 2.61  95 2.61

  66  0.625  0.125  0.125-  65 2.61  67 2.61  72 2.61  74 2.61  96 2.61  98 2.61 102 2.61 104 2.61

  67  0.500  0.000  0.250-  40 2.61  42 2.61  59 2.61  61 2.61  66 2.61  68 2.61  89 2.61  91 2.61

  68  0.625  0.125  0.375-   4 2.61  67 2.61  69 2.61  74 2.61  76 2.61  98 2.61 100 2.61 104 2.61
                           128 3.01
  69  0.500  0.000  0.500-  42 2.61  43 2.61  61 2.61  62 2.61  68 2.61  91 2.61  93 2.61 128 2.61
                             7 3.01
  70  0.500  0.000  0.750-  43 2.61  45 2.61  62 2.61  64 2.61  71 2.61  93 2.61  95 2.61 128 2.61

  71  0.625  0.125  0.875-  65 2.61  70 2.61  72 2.61  78 2.61  96 2.61 101 2.61 102 2.61 107 2.61
                           125 3.01 128 3.01
  72  0.500  0.250  0.000-   2 2.61  40 2.61  45 2.61  51 2.61  66 2.61  71 2.61  73 2.61  79 2.61

  73  0.625  0.375  0.125-  72 2.61  74 2.61  80 2.61  82 2.61 102 2.61 104 2.61 109 2.61 111 2.61
                             2 3.01
  74  0.500  0.250  0.250-   2 2.61  40 2.61  42 2.61  48 2.61  66 2.61  68 2.61  73 2.61  75 2.61

  75  0.625  0.375  0.375-   4 2.61  74 2.61  76 2.61  82 2.61  84 2.61 104 2.61 111 2.61 113 2.61

  76  0.500  0.250  0.500-  42 2.61  43 2.61  48 2.61  49 2.61  68 2.61  75 2.61  77 2.61 128 2.61
                             4 3.01   8 3.01
  77  0.625  0.375  0.625-   4 2.61  76 2.61  78 2.61  84 2.61  86 2.61 107 2.61 113 2.61 115 2.61
                           128 3.01
  78  0.500  0.250  0.750-  43 2.61  45 2.61  49 2.61  51 2.61  71 2.61  77 2.61  79 2.61 128 2.61

  79  0.625  0.375  0.875-  72 2.61  78 2.61  80 2.61  86 2.61 102 2.61 107 2.61 109 2.61 115 2.61

  80  0.500  0.500  0.000-   2 2.61   3 2.61  51 2.61  57 2.61  73 2.61  79 2.61  81 2.61  87 2.61

  81  0.625  0.625  0.125-  11 2.61  80 2.61  82 2.61  88 2.61  90 2.61 109 2.61 111 2.61 117 2.61
                             3 3.01
  82  0.500  0.500  0.250-   2 2.61   3 2.61  48 2.61  73 2.61  75 2.61  81 2.61  83 2.61 124 2.61

  83  0.625  0.625  0.375-  11 2.61  82 2.61  84 2.61  90 2.61  92 2.61 111 2.61 113 2.61 120 2.61
                           124 3.01
  84  0.500  0.500  0.500-  48 2.61  49 2.61  55 2.61  75 2.61  77 2.61  83 2.61  85 2.61 124 2.61

  85  0.625  0.625  0.625-  84 2.61  86 2.61  92 2.61  94 2.61 113 2.61 115 2.61 120 2.61 121 2.61

  86  0.500  0.500  0.750-  49 2.61  51 2.61  55 2.61  57 2.61  77 2.61  79 2.61  85 2.61  87 2.61

  87  0.625  0.625  0.875-  80 2.61  86 2.61  88 2.61  94 2.61 109 2.61 115 2.61 117 2.61 121 2.61

  88  0.500  0.750  0.000-   3 2.61  57 2.61  59 2.61  64 2.61  81 2.61  87 2.61  89 2.61  95 2.61

  89  0.625  0.875  0.125-  11 2.61  65 2.61  67 2.61  88 2.61  90 2.61  96 2.61  98 2.61 117 2.61

  90  0.500  0.750  0.250-   3 2.61  59 2.61  61 2.61  81 2.61  83 2.61  89 2.61  91 2.61 124 2.61
                            11 3.01
  91  0.625  0.875  0.375-  11 2.61  67 2.61  69 2.61  90 2.61  92 2.61  98 2.61 100 2.61 120 2.61

  92  0.500  0.750  0.500-  55 2.61  61 2.61  62 2.61  83 2.61  85 2.61  91 2.61  93 2.61 124 2.61
                             9 3.01
  93  0.625  0.875  0.625-  69 2.61  70 2.61  92 2.61  94 2.61 100 2.61 101 2.61 120 2.61 121 2.61
                           126 3.01 128 3.01
  94  0.500  0.750  0.750-  55 2.61  57 2.61  62 2.61  64 2.61  85 2.61  87 2.61  93 2.61  95 2.61

  95  0.625  0.875  0.875-  65 2.61  70 2.61  88 2.61  94 2.61  96 2.61 101 2.61 117 2.61 121 2.61

  96  0.750  0.000  0.000-  66 2.61  71 2.61  89 2.61  95 2.61  97 2.61 118 2.61 122 2.61 125 2.61

  97  0.875  0.125  0.125-   5 2.61  12 2.61  14 2.61  20 2.61  96 2.61  98 2.61 102 2.61 104 2.61
                           125 3.01
  98  0.750  0.000  0.250-  66 2.61  68 2.61  89 2.61  91 2.61  97 2.61  99 2.61 118 2.61 119 2.61
                            11 3.01
  99  0.875  0.125  0.375-   4 2.61   5 2.61  14 2.61  16 2.61  23 2.61  98 2.61 100 2.61 104 2.61
                            10 3.01
 100  0.750  0.000  0.500-  10 2.61  68 2.61  91 2.61  93 2.61  99 2.61 119 2.61 126 2.61 128 2.61
                             4 3.01
 101  0.750  0.000  0.750-  10 2.61  71 2.61  93 2.61  95 2.61 122 2.61 125 2.61 126 2.61 128 2.61

 102  0.750  0.250  0.000-  66 2.61  71 2.61  73 2.61  79 2.61  97 2.61 103 2.61 108 2.61 125 2.61

 103  0.875  0.375  0.125-   5 2.61  20 2.61  28 2.61 102 2.61 104 2.61 109 2.61 111 2.61 127 2.61

 104  0.750  0.250  0.250-  66 2.61  68 2.61  73 2.61  75 2.61  97 2.61  99 2.61 103 2.61 105 2.61
                             4 3.01   5 3.01
 105  0.875  0.375  0.375-   4 2.61   5 2.61  23 2.61  28 2.61  29 2.61 104 2.61 111 2.61 113 2.61

 106  0.875  0.375  0.625-   4 2.61  23 2.61  25 2.61  29 2.61  31 2.61 107 2.61 113 2.61 115 2.61
                            10 3.01
 107  0.750  0.250  0.750-  10 2.61  71 2.61  77 2.61  79 2.61 106 2.61 108 2.61 125 2.61 128 2.61
                             4 3.01
 108  0.875  0.375  0.875-  20 2.61  25 2.61  31 2.61 102 2.61 107 2.61 109 2.61 115 2.61 127 2.61
                           125 3.01
 109  0.750  0.500  0.000-  73 2.61  79 2.61  81 2.61  87 2.61 103 2.61 108 2.61 110 2.61 116 2.61
                           127 3.01
 110  0.875  0.625  0.125-   1 2.61  11 2.61  28 2.61  33 2.61 109 2.61 111 2.61 117 2.61 127 2.61

 111  0.750  0.500  0.250-  73 2.61  75 2.61  81 2.61  83 2.61 103 2.61 105 2.61 110 2.61 112 2.61
                            11 3.01
 112  0.875  0.625  0.375-  11 2.61  28 2.61  29 2.61  33 2.61  35 2.61 111 2.61 113 2.61 120 2.61
                             6 3.01
 113  0.750  0.500  0.500-  75 2.61  77 2.61  83 2.61  85 2.61 105 2.61 106 2.61 112 2.61 114 2.61
                             4 3.01
 114  0.875  0.625  0.625-  29 2.61  31 2.61  35 2.61  37 2.61 113 2.61 115 2.61 120 2.61 121 2.61
                           126 3.01
 115  0.750  0.500  0.750-  77 2.61  79 2.61  85 2.61  87 2.61 106 2.61 108 2.61 114 2.61 116 2.61

 116  0.875  0.625  0.875-   1 2.61  31 2.61  37 2.61 109 2.61 115 2.61 117 2.61 121 2.61 127 2.61

 117  0.750  0.750  0.000-  81 2.61  87 2.61  89 2.61  95 2.61 110 2.61 116 2.61 118 2.61 122 2.61
                             1 3.01  11 3.01
 118  0.875  0.875  0.125-   1 2.61  11 2.61  12 2.61  14 2.61  33 2.61  96 2.61  98 2.61 117 2.61
                           123 3.01
 119  0.875  0.875  0.375-  11 2.61  14 2.61  16 2.61  33 2.61  35 2.61  98 2.61 100 2.61 120 2.61
                           126 3.01
 120  0.750  0.750  0.500-  83 2.61  85 2.61  91 2.61  93 2.61 112 2.61 114 2.61 119 2.61 126 2.61
                            11 3.01
 121  0.750  0.750  0.750-  85 2.61  87 2.61  93 2.61  95 2.61 114 2.61 116 2.61 122 2.61 126 2.61

 122  0.875  0.875  0.875-   1 2.61  12 2.61  18 2.61  37 2.61  96 2.61 101 2.61 117 2.61 121 2.61
                           125 3.01 126 3.01
 123  0.125  0.875  0.125-   1 2.61  12 2.61  14 2.61  33 2.61  39 2.61  41 2.61  58 2.61  60 2.61
                            27 3.01  13 3.01  34 3.01  59 3.01  38 3.01 118 3.01
 124  0.375  0.625  0.375-   9 2.61  53 2.61  54 2.61  60 2.61  82 2.61  84 2.61  90 2.61  92 2.61
                            61 3.01   6 3.01  83 3.01   3 3.01  55 3.01  48 3.01
 125  0.875  0.125  0.875-  12 2.61  18 2.61  20 2.61  25 2.61  96 2.61 101 2.61 102 2.61 107 2.61
                            97 3.01  19 3.01  71 3.01  10 3.01 108 3.01 122 3.01
 126  0.875  0.875  0.625-  16 2.61  18 2.61  35 2.61  37 2.61 100 2.61 101 2.61 120 2.61 121 2.61
                            10 3.01 114 3.01 119 3.01  93 3.01  36 3.01 122 3.01
 127  0.000  0.500  0.000-  21 2.61  26 2.61  27 2.61  32 2.61 103 2.61 108 2.61 110 2.61 116 2.61
                            52 3.01   1 3.01  28 3.01 109 3.01  31 3.01  20 3.01
 128  0.625  0.125  0.625-   4 2.61  69 2.61  70 2.61  76 2.61  78 2.61 100 2.61 101 2.61 107 2.61
                            77 3.01  10 3.01  93 3.01  43 3.01  71 3.01  68 3.01
 
  LATTYP: Found a simple cubic cell.
 ALAT       =    12.0400000000
  
  Lattice vectors:
  
 A1 = (  12.0400000000,   0.0000000000,   0.0000000000)
 A2 = (   0.0000000000,  12.0400000000,   0.0000000000)
 A3 = (   0.0000000000,   0.0000000000,  12.0400000000)


Analysis of symmetry for initial positions (statically):
=====================================================================
 Subroutine PRICEL returns:
 Original cell was already a primitive cell.
 

 Routine SETGRP: Setting up the symmetry group for a 
 simple cubic supercell.


 Subroutine GETGRP returns: Found  1 space group operations
 (whereof  1 operations were pure point group operations)
 out of a pool of 48 trial point group operations.


The static configuration has the point symmetry C_1 .


Analysis of symmetry for dynamics (positions and initial velocities):
=====================================================================
 Subroutine PRICEL returns:
 Original cell was already a primitive cell.
 

 Routine SETGRP: Setting up the symmetry group for a 
 simple cubic supercell.


 Subroutine GETGRP returns: Found  1 space group operations
 (whereof  1 operations were pure point group operations)
 out of a pool of 48 trial point group operations.


The dynamic configuration has the point symmetry C_1 .


 Subroutine INISYM returns: Found  1 space group operations
 (whereof  1 operations are pure point group operations),
 and found     1 'primitive' translations


----------------------------------------------------------------------------------------

                                     Primitive cell                                     

  volume of cell :    1745.3377

  direct lattice vectors                    reciprocal lattice vectors
    12.040000000  0.000000000  0.000000000     0.083056478  0.000000000  0.000000000
     0.000000000 12.040000000  0.000000000     0.000000000  0.083056478  0.000000000
     0.000000000  0.000000000 12.040000000     0.000000000  0.000000000  0.083056478

  length of vectors
    12.040000000 12.040000000 12.040000000     0.083056478  0.083056478  0.083056478

  position of ions in fractional coordinates (direct lattice)
     0.000000000  0.750000000  0.000000000
     0.375000000  0.375000000  0.125000000
     0.375000000  0.625000000  0.125000000
     0.750000000  0.250000000  0.500000000
     0.000000000  0.250000000  0.250000000
     0.125000000  0.625000000  0.375000000
     0.250000000  0.000000000  0.500000000
     0.250000000  0.250000000  0.500000000
     0.250000000  0.750000000  0.500000000
     0.875000000  0.125000000  0.625000000
     0.750000000  0.750000000  0.250000000
     0.000000000  0.000000000  0.000000000
     0.125000000  0.125000000  0.125000000
     0.000000000  0.000000000  0.250000000
     0.125000000  0.125000000  0.375000000
     0.000000000  0.000000000  0.500000000
     0.125000000  0.125000000  0.625000000
     0.000000000  0.000000000  0.750000000
     0.125000000  0.125000000  0.875000000
     0.000000000  0.250000000  0.000000000
     0.125000000  0.375000000  0.125000000
     0.125000000  0.375000000  0.375000000
     0.000000000  0.250000000  0.500000000
     0.125000000  0.375000000  0.625000000
     0.000000000  0.250000000  0.750000000
     0.125000000  0.375000000  0.875000000
     0.125000000  0.625000000  0.125000000
     0.000000000  0.500000000  0.250000000
     0.000000000  0.500000000  0.500000000
     0.125000000  0.625000000  0.625000000
     0.000000000  0.500000000  0.750000000
     0.125000000  0.625000000  0.875000000
     0.000000000  0.750000000  0.250000000
     0.125000000  0.875000000  0.375000000
     0.000000000  0.750000000  0.500000000
     0.125000000  0.875000000  0.625000000
     0.000000000  0.750000000  0.750000000
     0.125000000  0.875000000  0.875000000
     0.250000000  0.000000000  0.000000000
     0.375000000  0.125000000  0.125000000
     0.250000000  0.000000000  0.250000000
     0.375000000  0.125000000  0.375000000
     0.375000000  0.125000000  0.625000000
     0.250000000  0.000000000  0.750000000
     0.375000000  0.125000000  0.875000000
     0.250000000  0.250000000  0.000000000
     0.250000000  0.250000000  0.250000000
     0.375000000  0.375000000  0.375000000
     0.375000000  0.375000000  0.625000000
     0.250000000  0.250000000  0.750000000
     0.375000000  0.375000000  0.875000000
     0.250000000  0.500000000  0.000000000
     0.250000000  0.500000000  0.250000000
     0.250000000  0.500000000  0.500000000
     0.375000000  0.625000000  0.625000000
     0.250000000  0.500000000  0.750000000
     0.375000000  0.625000000  0.875000000
     0.250000000  0.750000000  0.000000000
     0.375000000  0.875000000  0.125000000
     0.250000000  0.750000000  0.250000000
     0.375000000  0.875000000  0.375000000
     0.375000000  0.875000000  0.625000000
     0.250000000  0.750000000  0.750000000
     0.375000000  0.875000000  0.875000000
     0.500000000  0.000000000  0.000000000
     0.625000000  0.125000000  0.125000000
     0.500000000  0.000000000  0.250000000
     0.625000000  0.125000000  0.375000000
     0.500000000  0.000000000  0.500000000
     0.500000000  0.000000000  0.750000000
     0.625000000  0.125000000  0.875000000
     0.500000000  0.250000000  0.000000000
     0.625000000  0.375000000  0.125000000
     0.500000000  0.250000000  0.250000000
     0.625000000  0.375000000  0.375000000
     0.500000000  0.250000000  0.500000000
     0.625000000  0.375000000  0.625000000
     0.500000000  0.250000000  0.750000000
     0.625000000  0.375000000  0.875000000
     0.500000000  0.500000000  0.000000000
     0.625000000  0.625000000  0.125000000
     0.500000000  0.500000000  0.250000000
     0.625000000  0.625000000  0.375000000
     0.500000000  0.500000000  0.500000000
     0.625000000  0.625000000  0.625000000
     0.500000000  0.500000000  0.750000000
     0.625000000  0.625000000  0.875000000
     0.500000000  0.750000000  0.000000000
     0.625000000  0.875000000  0.125000000
     0.500000000  0.750000000  0.250000000
     0.625000000  0.875000000  0.375000000
     0.500000000  0.750000000  0.500000000
     0.625000000  0.875000000  0.625000000
     0.500000000  0.750000000  0.750000000
     0.625000000  0.875000000  0.875000000
     0.750000000  0.000000000  0.000000000
     0.875000000  0.125000000  0.125000000
     0.750000000  0.000000000  0.250000000
     0.875000000  0.125000000  0.375000000
     0.750000000  0.000000000  0.500000000
     0.750000000  0.000000000  0.750000000
     0.750000000  0.250000000  0.000000000
     0.875000000  0.375000000  0.125000000
     0.750000000  0.250000000  0.250000000
     0.875000000  0.375000000  0.375000000
     0.875000000  0.375000000  0.625000000
     0.750000000  0.250000000  0.750000000
     0.875000000  0.375000000  0.875000000
     0.750000000  0.500000000  0.000000000
     0.875000000  0.625000000  0.125000000
     0.750000000  0.500000000  0.250000000
     0.875000000  0.625000000  0.375000000
     0.750000000  0.500000000  0.500000000
     0.875000000  0.625000000  0.625000000
     0.750000000  0.500000000  0.750000000
     0.875000000  0.625000000  0.875000000
     0.750000000  0.750000000  0.000000000
     0.875000000  0.875000000  0.125000000
     0.875000000  0.875000000  0.375000000
     0.750000000  0.750000000  0.500000000
     0.750000000  0.750000000  0.750000000
     0.875000000  0.875000000  0.875000000
     0.125000000  0.875000000  0.125000000
     0.375000000  0.625000000  0.375000000
     0.875000000  0.125000000  0.875000000
     0.875000000  0.875000000  0.625000000
     0.000000000  0.500000000  0.000000000
     0.625000000  0.125000000  0.625000000

  ion indices of the primitive-cell ions
   primitive index   ion index
                 1           1
                 2           2
                 3           3
                 4           4
                 5           5
                 6           6
                 7           7
                 8           8
                 9           9
                10          10
                11          11
                12          12
                13          13
                14          14
                15          15
                16          16
                17          17
                18          18
                19          19
                20          20
                21          21
                22          22
                23          23
                24          24
                25          25
                26          26
                27          27
                28          28
                29          29
                30          30
                31          31
                32          32
                33          33
                34          34
                35          35
                36          36
                37          37
                38          38
                39          39
                40          40
                41          41
                42          42
                43          43
                44          44
                45          45
                46          46
                47          47
                48          48
                49          49
                50          50
                51          51
                52          52
                53          53
                54          54
                55          55
                56          56
                57          57
                58          58
                59          59
                60          60
                61          61
                62          62
                63          63
                64          64
                65          65
                66          66
                67          67
                68          68
                69          69
                70          70
                71          71
                72          72
                73          73
                74          74
                75          75
                76          76
                77          77
                78          78
                79          79
                80          80
                81          81
                82          82
                83          83
                84          84
                85          85
                86          86
                87          87
                88          88
                89          89
                90          90
                91          91
                92          92
                93          93
                94          94
                95          95
                96          96
                97          97
                98          98
                99          99
               100         100
               101         101
               102         102
               103         103
               104         104
               105         105
               106         106
               107         107
               108         108
               109         109
               110         110
               111         111
               112         112
               113         113
               114         114
               115         115
               116         116
               117         117
               118         118
               119         119
               120         120
               121         121
               122         122
               123         123
               124         124
               125         125
               126         126
               127         127
               128         128

----------------------------------------------------------------------------------------

 
 
 KPOINTS: KPOINTS generated by db_to_vasp         

Automatic generation of k-mesh.
 Grid dimensions read from file:
 generate k-points for:    4    4    4

 Generating k-lattice:

  Cartesian coordinates                     Fractional coordinates (reciprocal lattice)
     0.020764120  0.000000000  0.000000000     0.250000000  0.000000000  0.000000000
     0.000000000  0.020764120  0.000000000     0.000000000  0.250000000  0.000000000
     0.000000000  0.000000000  0.020764120     0.000000000  0.000000000  0.250000000

  Length of vectors
     0.020764120  0.020764120  0.020764120

  Shift w.r.t. Gamma in fractional coordinates (k-lattice)
     0.000000000  0.000000000  0.000000000

 
 Subroutine IBZKPT returns following result:
 ===========================================
 
 Found     36 irreducible k-points:
 
 Following reciprocal coordinates:
            Coordinates               Weight
  0.000000  0.000000  0.000000      1.000000
  0.250000  0.000000  0.000000      2.000000
  0.000000  0.250000  0.000000      2.000000
  0.000000  0.000000  0.250000      2.000000
  0.500000  0.000000  0.000000      1.000000
  0.000000  0.500000  0.000000      1.000000
  0.000000  0.000000  0.500000      1.000000
  0.250000  0.250000  0.000000      2.000000
  0.000000  0.250000  0.250000      2.000000
  0.250000  0.000000  0.250000      2.000000
 -0.250000  0.250000  0.000000      2.000000
 -0.250000  0.000000  0.250000      2.000000
  0.000000 -0.250000  0.250000      2.000000
  0.500000  0.250000  0.000000      2.000000
  0.000000  0.500000  0.250000      2.000000
  0.250000  0.000000  0.500000      2.000000
 -0.250000  0.500000  0.000000      2.000000
  0.500000  0.000000  0.250000      2.000000
  0.000000  0.250000  0.500000      2.000000
  0.500000  0.500000  0.000000      1.000000
  0.000000  0.500000  0.500000      1.000000
  0.500000  0.000000  0.500000      1.000000
  0.250000  0.250000  0.250000      2.000000
 -0.250000  0.250000  0.250000      2.000000
 -0.250000 -0.250000  0.250000      2.000000
  0.250000 -0.250000  0.250000      2.000000
  0.500000  0.250000  0.250000      2.000000
  0.250000  0.500000  0.250000      2.000000
  0.250000  0.250000  0.500000      2.000000
 -0.250000  0.500000  0.250000      2.000000
 -0.250000  0.250000  0.500000      2.000000
  0.500000 -0.250000  0.250000      2.000000
  0.500000  0.500000  0.250000      2.000000
  0.250000  0.500000  0.500000      2.000000
  0.500000  0.250000  0.500000      2.000000
  0.500000  0.500000  0.500000      1.000000
 
 Following cartesian coordinates:
            Coordinates               Weight
  0.000000  0.000000  0.000000      1.000000
  0.020764  0.000000  0.000000      2.000000
  0.000000  0.020764  0.000000      2.000000
  0.000000  0.000000  0.020764      2.000000
  0.041528  0.000000  0.000000      1.000000
  0.000000  0.041528  0.000000      1.000000
  0.000000  0.000000  0.041528      1.000000
  0.020764  0.020764  0.000000      2.000000
  0.000000  0.020764  0.020764      2.000000
  0.020764  0.000000  0.020764      2.000000
 -0.020764  0.020764  0.000000      2.000000
 -0.020764  0.000000  0.020764      2.000000
  0.000000 -0.020764  0.020764      2.000000
  0.041528  0.020764  0.000000      2.000000
  0.000000  0.041528  0.020764      2.000000
  0.020764  0.000000  0.041528      2.000000
 -0.020764  0.041528  0.000000      2.000000
  0.041528  0.000000  0.020764      2.000000
  0.000000  0.020764  0.041528      2.000000
  0.041528  0.041528  0.000000      1.000000
  0.000000  0.041528  0.041528      1.000000
  0.041528  0.000000  0.041528      1.000000
  0.020764  0.020764  0.020764      2.000000
 -0.020764  0.020764  0.020764      2.000000
 -0.020764 -0.020764  0.020764      2.000000
  0.020764 -0.020764  0.020764      2.000000
  0.041528  0.020764  0.020764      2.000000
  0.020764  0.041528  0.020764      2.000000
  0.020764  0.020764  0.041528      2.000000
 -0.020764  0.041528  0.020764      2.000000
 -0.020764  0.020764  0.041528      2.000000
  0.041528 -0.020764  0.020764      2.000000
  0.041528  0.041528  0.020764      2.000000
  0.020764  0.041528  0.041528      2.000000
  0.041528  0.020764  0.041528      2.000000
  0.041528  0.041528  0.041528      1.000000
 


--------------------------------------------------------------------------------------------------------




 Dimension of arrays:
   k-points           NKPTS =     36   k-points in BZ     NKDIM =     36   number of bands    NBANDS=    896
   number of dos      NEDOS =    301   number of ions     NIONS =    128
   non local maximal  LDIM  =      6   non local SUM 2l+1 LMDIM =     18
   total plane-waves  NPLWV = 729000
   max r-space proj   IRMAX =      1   max aug-charges    IRDMAX=  24038
   dimension x,y,z NGX =    90 NGY =   90 NGZ =   90
   dimension x,y,z NGXF=   180 NGYF=  180 NGZF=  180
   support grid    NGXF=   180 NGYF=  180 NGZF=  180
   ions per type =               4   7 111   4   2
   NGX,Y,Z   is equivalent  to a cutoff of  12.43, 12.43, 12.43 a.u.
   NGXF,Y,Z  is equivalent  to a cutoff of  24.85, 24.85, 24.85 a.u.

 SYSTEM =  unknown system                          
 POSCAR =  Cr Ti V  W  Zr                          

 Startparameter for this run:
   NWRITE =      2    write-flag & timer
   PREC   = accura    normal or accurate (medium, high low for compatibility)
   ISTART =      0    job   : 0-new  1-cont  2-samecut
   ICHARG =      2    charge: 1-file 2-atom 10-const
   ISPIN  =      1    spin polarized calculation?
   LNONCOLLINEAR =      F non collinear calculations
   LSORBIT =      F    spin-orbit coupling
   INIWAV =      1    electr: 0-lowe 1-rand  2-diag
   LASPH  =      F    aspherical Exc in radial PAW
 Electronic Relaxation 1
   ENCUT  =  520.0 eV  38.22 Ry    6.18 a.u.  22.39 22.39 22.39*2*pi/ulx,y,z
   ENINI  =  520.0     initial cutoff
   ENAUG  =  598.5 eV  augmentation charge cutoff
   NELM   =     60;   NELMIN=  2; NELMDL=  0     # of ELM steps 
   EDIFF  = 0.1E-05   stopping-criterion for ELM
   LREAL  =      F    real-space projection
   NLSPLINE    = F    spline interpolate recip. space projectors
   LCOMPAT=      F    compatible to vasp.4.4
   GGA_COMPAT  = T    GGA compatible to vasp.4.4-vasp.4.6
   LMAXPAW     = -100 max onsite density
   LMAXMIX     =    2 max onsite mixed and CHGCAR
   VOSKOWN=      0    Vosko Wilk Nusair interpolation
   ROPT   =    0.00000   0.00000   0.00000   0.00000
   ROPT   =    0.00000
 Ionic relaxation
   EDIFFG = 0.1E-04   stopping-criterion for IOM
   NSW    =    100    number of steps for IOM
   NBLOCK =      1;   KBLOCK =    100    inner block; outer block 
   IBRION =      2    ionic relax: 0-MD 1-quasi-New 2-CG
   NFREE  =      1    steps in history (QN), initial steepest desc. (CG)
   ISIF   =      3    stress and relaxation
   IWAVPR =     11    prediction:  0-non 1-charg 2-wave 3-comb
   ISYM   =      2    0-nonsym 1-usesym 2-fastsym
   LCORR  =      T    Harris-Foulkes like correction to forces

   POTIM  = 0.5000    time-step for ionic-motion
   TEIN   =    0.0    initial temperature
   TEBEG  =    0.0;   TEEND  =   0.0 temperature during run
   SMASS  =  -3.00    Nose mass-parameter (am)
   estimated Nose-frequenzy (Omega)   =  0.10E-29 period in steps = 0.13E+47 mass=  -0.331E-26a.u.
   SCALEE = 1.0000    scale energy and forces
   NPACO  =    256;   APACO  = 10.0  distance and # of slots for P.C.
   PSTRESS=    0.0 pullay stress

  Mass of Ions in am
   POMASS =  52.00 47.88 50.94183.85 91.22
  Ionic Valenz
   ZVAL   =  12.00 10.00 11.00 14.00 12.00
  Atomic Wigner-Seitz radii
   RWIGS  =  -1.00 -1.00 -1.00 -1.00 -1.00
  virtual crystal weights 
   VCA    =   1.00  1.00  1.00  1.00  1.00
   NELECT =    1419.0000    total number of electrons
   NUPDOWN=      -1.0000    fix difference up-down

 DOS related values:
   EMIN   =  10.00;   EMAX   =-10.00  energy-range for DOS
   EFERMI =   0.00;   METHOD = LEGACY      
   ISMEAR =     1;   SIGMA  =   0.20  broadening in eV -4-tet -1-fermi 0-gaus

 Electronic relaxation 2 (details)
   IALGO  =     38    algorithm
   LDIAG  =      T    sub-space diagonalisation (order eigenvalues)
   LSUBROT=      F    optimize rotation matrix (better conditioning)
   TURBO    =      0    0=normal 1=particle mesh
   IRESTART =      0    0=no restart 2=restart with 2 vectors
   NREBOOT  =      0    no. of reboots
   NMIN     =      0    reboot dimension
   EREF     =   0.00    reference energy to select bands
   IMIX   =      4    mixing-type and parameters
     AMIX     =   0.40;   BMIX     =  1.00
     AMIX_MAG =   1.60;   BMIX_MAG =  1.00
     AMIN     =   0.10
     WC   =   100.;   INIMIX=   1;  MIXPRE=   1;  MAXMIX= -45

 Intra band minimization:
   WEIMIN = 0.0010     energy-eigenvalue tresh-hold
   EBREAK =  0.28E-09  absolut break condition
   DEPER  =   0.30     relativ break condition  

   TIME   =   0.40     timestep for ELM

  volume/ion in A,a.u.               =      13.64        92.02
  Fermi-wavevector in a.u.,A,eV,Ry     =   1.527950  2.887407 31.764586  2.334631
  Thomas-Fermi vector in A             =   2.635776
 
 Write flags
   LWAVE        =      F    write WAVECAR
   LDOWNSAMPLE  =      F    k-point downsampling of WAVECAR
   LCHARG       =      T    write CHGCAR
   LVTOT        =      F    write LOCPOT, total local potential
   LVHAR        =      F    write LOCPOT, Hartree potential only
   LELF         =      F    write electronic localiz. function (ELF)
   LORBIT       =      0    0 simple, 1 ext, 2 COOP (PROOUT), +10 PAW based schemes


 Dipole corrections
   LMONO  =      F    monopole corrections only (constant potential shift)
   LDIPOL =      F    correct potential (dipole corrections)
   IDIPOL =      0    1-x, 2-y, 3-z, 4-all directions 
   EPSILON=  1.0000000 bulk dielectric constant

 Exchange correlation treatment:
   GGA     =    --    GGA type
   LEXCH   =     8    internal setting for exchange type
   LIBXC   =     F    Libxc                    
   VOSKOWN =     0    Vosko Wilk Nusair interpolation
   LHFCALC =     F    Hartree Fock is set to
   LHFONE  =     F    Hartree Fock one center treatment
   AEXX    =    0.0000 exact exchange contribution

 Linear response parameters
   LEPSILON=     F    determine dielectric tensor
   LRPA    =     F    only Hartree local field effects (RPA)
   LNABLA  =     F    use nabla operator in PAW spheres
   LVEL    =     F    velocity operator in full k-point grid
   CSHIFT  =0.1000    complex shift for real part using Kramers Kronig
   OMEGAMAX=  -1.0    maximum frequency
   DEG_THRESHOLD= 0.2000000E-02 threshold for treating states as degnerate
   RTIME   =   -0.100 relaxation time in fs
  (WPLASMAI=    0.000 imaginary part of plasma frequency in eV, 0.658/RTIME)
   DFIELD  = 0.0000000 0.0000000 0.0000000 field for delta impulse in time
 
  Optional k-point grid parameters
   LKPOINTS_OPT  =     F    use optional k-point grid
   KPOINTS_OPT_MODE=     1    mode for optional k-point grid
 
 Orbital magnetization related:
   ORBITALMAG=     F  switch on orbital magnetization
   LCHIMAG   =     F  perturbation theory with respect to B field
   DQ        =  0.001000  dq finite difference perturbation B field
   LLRAUG    =     F  two centre corrections for induced B field
   LBONE     =     F  B-component reconstruction in AE one-centre
   LVGVCALC  =     T  calculate vGv susceptibility
   LVGVAPPL  =     F  apply vGv susceptibility instead of pGv for G=0

 Random number generation:
   RANDOM_GENERATOR = DEFAULT
   PCG_SEED         = not used


--------------------------------------------------------------------------------------------------------


 conjugate gradient relaxation of ions
 charge density and potential will be updated during run
 non-spin polarized calculation
 Variant of blocked Davidson
 Davidson routine will perform the subspace rotation
 perform sub-space diagonalisation
    after iterative eigenvector-optimisation
 modified Broyden-mixing scheme, WC =      100.0
 initial mixing is a Kerker type mixing with AMIX =  0.4000 and BMIX =      1.0000
 Hartree-type preconditioning will be used
 using additional bands           186
 reciprocal scheme for non local part
 use partial core corrections
 calculate Harris-corrections to forces 
   (improved forces if not selfconsistent)
 use gradient corrections 
 use of overlap-Matrix (Vanderbilt PP)
 Methfessel and Paxton  Order N= 1 SIGMA  =   0.20


--------------------------------------------------------------------------------------------------------


  energy-cutoff  :      520.00
  volume of cell :     1745.34
      direct lattice vectors                 reciprocal lattice vectors
    12.040000000  0.000000000  0.000000000     0.083056478  0.000000000  0.000000000
     0.000000000 12.040000000  0.000000000     0.000000000  0.083056478  0.000000000
     0.000000000  0.000000000 12.040000000     0.000000000  0.000000000  0.083056478

  length of vectors
    12.040000000 12.040000000 12.040000000     0.083056478  0.083056478  0.083056478


 
 k-points in units of 2pi/SCALE and weight: KPOINTS generated by db_to_vasp         
   0.00000000  0.00000000  0.00000000       0.016
   0.02076412  0.00000000  0.00000000       0.031
   0.00000000  0.02076412  0.00000000       0.031
   0.00000000  0.00000000  0.02076412       0.031
   0.04152824  0.00000000  0.00000000       0.016
   0.00000000  0.04152824  0.00000000       0.016
   0.00000000  0.00000000  0.04152824       0.016
   0.02076412  0.02076412  0.00000000       0.031
   0.00000000  0.02076412  0.02076412       0.031
   0.02076412  0.00000000  0.02076412       0.031
  -0.02076412  0.02076412  0.00000000       0.031
  -0.02076412  0.00000000  0.02076412       0.031
   0.00000000 -0.02076412  0.02076412       0.031
   0.04152824  0.02076412  0.00000000       0.031
   0.00000000  0.04152824  0.02076412       0.031
   0.02076412  0.00000000  0.04152824       0.031
  -0.02076412  0.04152824  0.00000000       0.031
   0.04152824  0.00000000  0.02076412       0.031
   0.00000000  0.02076412  0.04152824       0.031
   0.04152824  0.04152824  0.00000000       0.016
   0.00000000  0.04152824  0.04152824       0.016
   0.04152824  0.00000000  0.04152824       0.016
   0.02076412  0.02076412  0.02076412       0.031
  -0.02076412  0.02076412  0.02076412       0.031
  -0.02076412 -0.02076412  0.02076412       0.031
   0.02076412 -0.02076412  0.02076412       0.031
   0.04152824  0.02076412  0.02076412       0.031
   0.02076412  0.04152824  0.02076412       0.031
   0.02076412  0.02076412  0.04152824       0.031
  -0.02076412  0.04152824  0.02076412       0.031
  -0.02076412  0.02076412  0.04152824       0.031
   0.04152824 -0.02076412  0.02076412       0.031
   0.04152824  0.04152824  0.02076412       0.031
   0.02076412  0.04152824  0.04152824       0.031
   0.04152824  0.02076412  0.04152824       0.031
   0.04152824  0.04152824  0.04152824       0.016
 
 k-points in reciprocal lattice and weights: KPOINTS generated by db_to_vasp         
   0.00000000  0.00000000  0.00000000       0.016
   0.25000000  0.00000000  0.00000000       0.031
   0.00000000  0.25000000  0.00000000       0.031
   0.00000000  0.00000000  0.25000000       0.031
   0.50000000  0.00000000  0.00000000       0.016
   0.00000000  0.50000000  0.00000000       0.016
   0.00000000  0.00000000  0.50000000       0.016
   0.25000000  0.25000000  0.00000000       0.031
   0.00000000  0.25000000  0.25000000       0.031
   0.25000000  0.00000000  0.25000000       0.031
  -0.25000000  0.25000000  0.00000000       0.031
  -0.25000000  0.00000000  0.25000000       0.031
   0.00000000 -0.25000000  0.25000000       0.031
   0.50000000  0.25000000  0.00000000       0.031
   0.00000000  0.50000000  0.25000000       0.031
   0.25000000  0.00000000  0.50000000       0.031
  -0.25000000  0.50000000  0.00000000       0.031
   0.50000000  0.00000000  0.25000000       0.031
   0.00000000  0.25000000  0.50000000       0.031
   0.50000000  0.50000000  0.00000000       0.016
   0.00000000  0.50000000  0.50000000       0.016
   0.50000000  0.00000000  0.50000000       0.016
   0.25000000  0.25000000  0.25000000       0.031
  -0.25000000  0.25000000  0.25000000       0.031
  -0.25000000 -0.25000000  0.25000000       0.031
   0.25000000 -0.25000000  0.25000000       0.031
   0.50000000  0.25000000  0.25000000       0.031
   0.25000000  0.50000000  0.25000000       0.031
   0.25000000  0.25000000  0.50000000       0.031
  -0.25000000  0.50000000  0.25000000       0.031
  -0.25000000  0.25000000  0.50000000       0.031
   0.50000000 -0.25000000  0.25000000       0.031
   0.50000000  0.50000000  0.25000000       0.031
   0.25000000  0.50000000  0.50000000       0.031
   0.50000000  0.25000000  0.50000000       0.031
   0.50000000  0.50000000  0.50000000       0.016
 
 position of ions in fractional coordinates (direct lattice) 
   0.00000000  0.75000000  0.00000000
   0.37500000  0.37500000  0.12500000
   0.37500000  0.62500000  0.12500000
   0.75000000  0.25000000  0.50000000
   0.00000000  0.25000000  0.25000000
   0.12500000  0.62500000  0.37500000
   0.25000000  0.00000000  0.50000000
   0.25000000  0.25000000  0.50000000
   0.25000000  0.75000000  0.50000000
   0.87500000  0.12500000  0.62500000
   0.75000000  0.75000000  0.25000000
   0.00000000  0.00000000  0.00000000
   0.12500000  0.12500000  0.12500000
   0.00000000  0.00000000  0.25000000
   0.12500000  0.12500000  0.37500000
   0.00000000  0.00000000  0.50000000
   0.12500000  0.12500000  0.62500000
   0.00000000  0.00000000  0.75000000
   0.12500000  0.12500000  0.87500000
   0.00000000  0.25000000  0.00000000
   0.12500000  0.37500000  0.12500000
   0.12500000  0.37500000  0.37500000
   0.00000000  0.25000000  0.50000000
   0.12500000  0.37500000  0.62500000
   0.00000000  0.25000000  0.75000000
   0.12500000  0.37500000  0.87500000
   0.12500000  0.62500000  0.12500000
   0.00000000  0.50000000  0.25000000
   0.00000000  0.50000000  0.50000000
   0.12500000  0.62500000  0.62500000
   0.00000000  0.50000000  0.75000000
   0.12500000  0.62500000  0.87500000
   0.00000000  0.75000000  0.25000000
   0.12500000  0.87500000  0.37500000
   0.00000000  0.75000000  0.50000000
   0.12500000  0.87500000  0.62500000
   0.00000000  0.75000000  0.75000000
   0.12500000  0.87500000  0.87500000
   0.25000000  0.00000000  0.00000000
   0.37500000  0.12500000  0.12500000
   0.25000000  0.00000000  0.25000000
   0.37500000  0.12500000  0.37500000
   0.37500000  0.12500000  0.62500000
   0.25000000  0.00000000  0.75000000
   0.37500000  0.12500000  0.87500000
   0.25000000  0.25000000  0.00000000
   0.25000000  0.25000000  0.25000000
   0.37500000  0.37500000  0.37500000
   0.37500000  0.37500000  0.62500000
   0.25000000  0.25000000  0.75000000
   0.37500000  0.37500000  0.87500000
   0.25000000  0.50000000  0.00000000
   0.25000000  0.50000000  0.25000000
   0.25000000  0.50000000  0.50000000
   0.37500000  0.62500000  0.62500000
   0.25000000  0.50000000  0.75000000
   0.37500000  0.62500000  0.87500000
   0.25000000  0.75000000  0.00000000
   0.37500000  0.87500000  0.12500000
   0.25000000  0.75000000  0.25000000
   0.37500000  0.87500000  0.37500000
   0.37500000  0.87500000  0.62500000
   0.25000000  0.75000000  0.75000000
   0.37500000  0.87500000  0.87500000
   0.50000000  0.00000000  0.00000000
   0.62500000  0.12500000  0.12500000
   0.50000000  0.00000000  0.25000000
   0.62500000  0.12500000  0.37500000
   0.50000000  0.00000000  0.50000000
   0.50000000  0.00000000  0.75000000
   0.62500000  0.12500000  0.87500000
   0.50000000  0.25000000  0.00000000
   0.62500000  0.37500000  0.12500000
   0.50000000  0.25000000  0.25000000
[...]
  -exchange      EXHF   =         0.00000000
  -V(xc)+E(xc)   XCENC  =      3784.96259718
  PAW double counting   =    179362.05385876  -177228.77544377
  entropy T*S    EENTRO =        -0.12053490
  eigenvalues    EBANDS =    -21687.10258355
  atomic energy  EATOM  =    170619.86198914
  Solvation  Ediel_sol  =         0.00000000
  ---------------------------------------------------
  free energy    TOTEN  =     -1151.87998710 eV

  energy without entropy =    -1151.75945220  energy(sigma->0) =    -1151.83980880


--------------------------------------------------------------------------------------------------------




--------------------------------------- Iteration      2(  16)  ---------------------------------------


    POTLOK:  cpu time      0.0650: real time      0.0689
    SETDIJ:  cpu time      0.0081: real time      0.0081
     EDDAV:  cpu time    445.1177: real time    445.4446
       DOS:  cpu time      0.0041: real time      0.0041
    CHARGE:  cpu time      6.7111: real time      6.7164
    MIXING:  cpu time      0.0017: real time      0.0017
    --------------------------------------------
      LOOP:  cpu time    451.9076: real time    452.2437

 eigenvalue-minimisations  : 93952
 total energy-change (2. order) : 0.1829676E-02  (-0.2548732E-02)
 number of electron    1418.9999767 magnetization 
 augmentation part      592.4640926 magnetization 

 Broyden mixing:
  rms(total) = 0.41967E-01    rms(broyden)= 0.41937E-01
  rms(prec ) = 0.65783E-01
  weight for this iteration     100.00

 eigenvalues of (default mixing * dielectric matrix)
  average eigenvalue GAMMA=   0.5527
  2.1563  1.4792  1.0713  1.0713  0.7057  0.3935  0.2668  0.2016  0.1754  0.1567
  0.1478  0.1318  0.1141  0.1115  0.1080

 Free energy of the ion-electron system (eV)
  ---------------------------------------------------
  alpha Z        PSCENC =     12618.89871921
  Ewald energy   TEWEN  =   -135854.36350015
  -Hartree energ DENC   =    -32766.97639895
  -exchange      EXHF   =         0.00000000
  -V(xc)+E(xc)   XCENC  =      3784.95649488
  PAW double counting   =    179337.13510075  -177204.35838185
  entropy T*S    EENTRO =        -0.11940512
  eigenvalues    EBANDS =    -21686.91277531
  atomic energy  EATOM  =    170619.86198914
  Solvation  Ediel_sol  =         0.00000000
  ---------------------------------------------------
  free energy    TOTEN  =     -1151.87815742 eV

  energy without entropy =    -1151.75875230  energy(sigma->0) =    -1151.83835571


--------------------------------------------------------------------------------------------------------




--------------------------------------- Iteration      2(  17)  ---------------------------------------


    POTLOK:  cpu time      0.0622: real time      0.0687
    SETDIJ:  cpu time      0.0079: real time      0.0079
     EDDAV:  cpu time    465.3530: real time    465.6770
       DOS:  cpu time      0.0057: real time      0.0057
    CHARGE:  cpu time      6.6509: real time      6.6574
    MIXING:  cpu time      0.0017: real time      0.0017
    --------------------------------------------
      LOOP:  cpu time    472.0813: real time    472.4184

 eigenvalue-minimisations  : 98880
 total energy-change (2. order) :-0.2740424E-05  (-0.1025939E-02)
 number of electron    1418.9999767 magnetization 
 augmentation part      592.4671628 magnetization 

 Broyden mixing:
  rms(total) = 0.35990E-01    rms(broyden)= 0.35967E-01
  rms(prec ) = 0.66335E-01
  weight for this iteration     100.00

 eigenvalues of (default mixing * dielectric matrix)
  average eigenvalue GAMMA=   0.5506
  2.2425  1.5967  1.0654  1.0654  0.7974  0.4217  0.2695  0.2409  0.1825  0.1737
  0.1535  0.1081  0.1135  0.1123  0.1328  0.1328

 Free energy of the ion-electron system (eV)
  ---------------------------------------------------
  alpha Z        PSCENC =     12618.89871921
  Ewald energy   TEWEN  =   -135854.36350015
  -Hartree energ DENC   =    -32765.86334943
  -exchange      EXHF   =         0.00000000
  -V(xc)+E(xc)   XCENC  =      3784.91467050
  PAW double counting   =    179318.54699514  -177186.28940889
  entropy T*S    EENTRO =        -0.11997602
  eigenvalues    EBANDS =    -21687.46429966
  atomic energy  EATOM  =    170619.86198914
  Solvation  Ediel_sol  =         0.00000000
  ---------------------------------------------------
  free energy    TOTEN  =     -1151.87816016 eV

  energy without entropy =    -1151.75818414  energy(sigma->0) =    -1151.83816815


--------------------------------------------------------------------------------------------------------




--------------------------------------- Iteration      2(  18)  ---------------------------------------


    POTLOK:  cpu time      0.0647: real time      0.0676
    SETDIJ:  cpu time      0.0078: real time      0.0078
     EDDAV:  cpu time    465.2986: real time    465.6132
       DOS:  cpu time      0.0038: real time      0.0038
    CHARGE:  cpu time      6.6725: real time      6.6782
    MIXING:  cpu time      0.0018: real time      0.0018
    --------------------------------------------
      LOOP:  cpu time    472.0491: real time    472.3723

 eigenvalue-minimisations  : 99008
 total energy-change (2. order) : 0.7190418E-03  (-0.5279153E-03)
 number of electron    1418.9999767 magnetization 
 augmentation part      592.4607551 magnetization 

 Broyden mixing:
  rms(total) = 0.21080E-01    rms(broyden)= 0.21056E-01
  rms(prec ) = 0.37462E-01
  weight for this iteration     100.00

 eigenvalues of (default mixing * dielectric matrix)
  average eigenvalue GAMMA=   0.5386
  2.3006  1.5981  1.0687  1.0687  0.8209  0.4247  0.3297  0.2672  0.2092  0.1799
  0.1572  0.1464  0.1329  0.1079  0.1108  0.1152  0.1177

 Free energy of the ion-electron system (eV)
  ---------------------------------------------------
  alpha Z        PSCENC =     12618.89871921
  Ewald energy   TEWEN  =   -135854.36350015
  -Hartree energ DENC   =    -32765.01636639
  -exchange      EXHF   =         0.00000000
  -V(xc)+E(xc)   XCENC  =      3784.88324579
  PAW double counting   =    179304.72709239  -177172.90488634
  entropy T*S    EENTRO =        -0.12015850
  eigenvalues    EBANDS =    -21687.84357628
  atomic energy  EATOM  =    170619.86198914
  Solvation  Ediel_sol  =         0.00000000
  ---------------------------------------------------
  free energy    TOTEN  =     -1151.87744112 eV

  energy without entropy =    -1151.75728262  energy(sigma->0) =    -1151.83738829


--------------------------------------------------------------------------------------------------------




--------------------------------------- Iteration      2(  19)  ---------------------------------------


    POTLOK:  cpu time      0.0606: real time      0.0681
    SETDIJ:  cpu time      0.0079: real time      0.0079
     EDDAV:  cpu time    462.1228: real time    462.4539
       DOS:  cpu time      0.0038: real time      0.0038
    CHARGE:  cpu time      6.7756: real time      6.7813
    MIXING:  cpu time      0.0019: real time      0.0019
    --------------------------------------------
      LOOP:  cpu time    468.9726: real time    469.3169

 eigenvalue-minimisations  : 98048
 total energy-change (2. order) : 0.2129152E-03  (-0.2310243E-03)
 number of electron    1418.9999767 magnetization 
 augmentation part      592.4641113 magnetization 

 Broyden mixing:
  rms(total) = 0.13093E-01    rms(broyden)= 0.13080E-01
  rms(prec ) = 0.19691E-01
  weight for this iteration     100.00

 eigenvalues of (default mixing * dielectric matrix)
  average eigenvalue GAMMA=   0.5537
  2.4260  1.5078  1.1144  1.1144  0.8051  0.8051  0.4512  0.2700  0.2430  0.1852
  0.1693  0.1567  0.1428  0.1315  0.1143  0.1078  0.1113  0.1113

 Free energy of the ion-electron system (eV)
  ---------------------------------------------------
  alpha Z        PSCENC =     12618.89871921
  Ewald energy   TEWEN  =   -135854.36350015
  -Hartree energ DENC   =    -32764.45574150
  -exchange      EXHF   =         0.00000000
  -V(xc)+E(xc)   XCENC  =      3784.85952826
  PAW double counting   =    179298.94742149  -177167.33262789
  entropy T*S    EENTRO =        -0.11984778
  eigenvalues    EBANDS =    -21688.17316898
  atomic energy  EATOM  =    170619.86198914
  Solvation  Ediel_sol  =         0.00000000
  ---------------------------------------------------
  free energy    TOTEN  =     -1151.87722820 eV

  energy without entropy =    -1151.75738042  energy(sigma->0) =    -1151.83727894


--------------------------------------------------------------------------------------------------------




--------------------------------------- Iteration      2(  20)  ---------------------------------------


    POTLOK:  cpu time      0.0622: real time      0.0693
    SETDIJ:  cpu time      0.0080: real time      0.0080
     EDDAV:  cpu time    445.0904: real time    445.4071
       DOS:  cpu time      0.0035: real time      0.0035
    CHARGE:  cpu time      6.6561: real time      6.6623
    MIXING:  cpu time      0.0019: real time      0.0019
    --------------------------------------------
      LOOP:  cpu time    451.8220: real time    452.1520

 eigenvalue-minimisations  : 94016
 total energy-change (2. order) :-0.3808828E-04  (-0.1168199E-03)
 number of electron    1418.9999767 magnetization 
 augmentation part      592.4734995 magnetization 

 Broyden mixing:
  rms(total) = 0.13721E-01    rms(broyden)= 0.13716E-01
  rms(prec ) = 0.20275E-01
  weight for this iteration     100.00

 eigenvalues of (default mixing * dielectric matrix)
  average eigenvalue GAMMA=   0.5488
  2.4722  1.3934  1.1358  1.1358  1.0152  0.8802  0.4576  0.2751  0.2577  0.1979
  0.1777  0.1646  0.1472  0.1409  0.1321  0.1138  0.1126  0.1084  0.1092

 Free energy of the ion-electron system (eV)
  ---------------------------------------------------
  alpha Z        PSCENC =     12618.89871921
  Ewald energy   TEWEN  =   -135854.36350015
  -Hartree energ DENC   =    -32763.66580902
  -exchange      EXHF   =         0.00000000
  -V(xc)+E(xc)   XCENC  =      3784.82465152
  PAW double counting   =    179293.50430199  -177162.12203843
  entropy T*S    EENTRO =        -0.12002574
  eigenvalues    EBANDS =    -21688.69555482
  atomic energy  EATOM  =    170619.86198914
  Solvation  Ediel_sol  =         0.00000000
  ---------------------------------------------------
  free energy    TOTEN  =     -1151.87726629 eV

  energy without entropy =    -1151.75724055  energy(sigma->0) =    -1151.83725771


--------------------------------------------------------------------------------------------------------




--------------------------------------- Iteration      2(  21)  ---------------------------------------


    POTLOK:  cpu time      0.0662: real time      0.0681
    SETDIJ:  cpu time      0.0078: real time      0.0078
     EDDAV:  cpu time    467.2718: real time    467.5978
       DOS:  cpu time      0.0049: real time      0.0049
    CHARGE:  cpu time      6.7008: real time      6.7068
    MIXING:  cpu time      0.0020: real time      0.0020
    --------------------------------------------
      LOOP:  cpu time    474.0536: real time    474.3875

 eigenvalue-minimisations  : 99392
 total energy-change (2. order) : 0.9252063E-04  (-0.6945265E-04)
 number of electron    1418.9999767 magnetization 
 augmentation part      592.4746787 magnetization 

 Broyden mixing:
  rms(total) = 0.63340E-02    rms(broyden)= 0.63287E-02
  rms(prec ) = 0.89346E-02
  weight for this iteration     100.00

 eigenvalues of (default mixing * dielectric matrix)
  average eigenvalue GAMMA=   0.5627
  2.5113  1.4259  1.4259  1.0780  1.0780  0.8801  0.5488  0.4075  0.2690  0.2500
  0.1876  0.1738  0.1580  0.1510  0.1362  0.1314  0.1138  0.1120  0.1077  0.1087

 Free energy of the ion-electron system (eV)
  ---------------------------------------------------
  alpha Z        PSCENC =     12618.89871921
  Ewald energy   TEWEN  =   -135854.36350015
  -Hartree energ DENC   =    -32763.43488648
  -exchange      EXHF   =         0.00000000
  -V(xc)+E(xc)   XCENC  =      3784.81482502
  PAW double counting   =    179288.83806134  -177157.57572602
  entropy T*S    EENTRO =        -0.12009578
  eigenvalues    EBANDS =    -21688.79656005
  atomic energy  EATOM  =    170619.86198914
  Solvation  Ediel_sol  =         0.00000000
  ---------------------------------------------------
  free energy    TOTEN  =     -1151.87717377 eV

  energy without entropy =    -1151.75707799  energy(sigma->0) =    -1151.83714185


--------------------------------------------------------------------------------------------------------




--------------------------------------- Iteration      2(  22)  ---------------------------------------


    POTLOK:  cpu time      0.0668: real time      0.0683
    SETDIJ:  cpu time      0.0081: real time      0.0081
     EDDAV:  cpu time    453.9678: real time    454.2821
       DOS:  cpu time      0.0034: real time      0.0034
    CHARGE:  cpu time      6.6673: real time      6.6732
    MIXING:  cpu time      0.0021: real time      0.0021
    --------------------------------------------
      LOOP:  cpu time    460.7155: real time    461.0373

 eigenvalue-minimisations  : 96064
 total energy-change (2. order) :-0.1826118E-04  (-0.3101737E-04)
 number of electron    1418.9999767 magnetization 
 augmentation part      592.4761331 magnetization 

 Broyden mixing:
  rms(total) = 0.76356E-02    rms(broyden)= 0.76332E-02
  rms(prec ) = 0.11463E-01
  weight for this iteration     100.00

 eigenvalues of (default mixing * dielectric matrix)
  average eigenvalue GAMMA=   0.5605
  2.5211  1.5344  1.5344  1.0521  1.0521  0.8929  0.6697  0.4258  0.2706  0.2556
  0.1998  0.1747  0.1747  0.1534  0.1534  0.1334  0.1310  0.1141  0.1117  0.1078
  0.1085

 Free energy of the ion-electron system (eV)
  ---------------------------------------------------
  alpha Z        PSCENC =     12618.89871921
  Ewald energy   TEWEN  =   -135854.36350015
  -Hartree energ DENC   =    -32763.29889391
  -exchange      EXHF   =         0.00000000
  -V(xc)+E(xc)   XCENC  =      3784.80928371
  PAW double counting   =    179283.06457423  -177151.88940582
  entropy T*S    EENTRO =        -0.11999221
  eigenvalues    EBANDS =    -21688.83996623
  atomic energy  EATOM  =    170619.86198914
  Solvation  Ediel_sol  =         0.00000000
  ---------------------------------------------------
  free energy    TOTEN  =     -1151.87719203 eV

  energy without entropy =    -1151.75719982  energy(sigma->0) =    -1151.83719463


--------------------------------------------------------------------------------------------------------




--------------------------------------- Iteration      2(  23)  ---------------------------------------


    POTLOK:  cpu time      0.0594: real time      0.0680
    SETDIJ:  cpu time      0.0080: real time      0.0080
     EDDAV:  cpu time    471.5077: real time    471.8387
       DOS:  cpu time      0.0051: real time      0.0051
    CHARGE:  cpu time      6.6487: real time      6.6541
    MIXING:  cpu time      0.0021: real time      0.0021
    --------------------------------------------
      LOOP:  cpu time    478.2309: real time    478.5759

 eigenvalue-minimisations  :100224
 total energy-change (2. order) : 0.3142137E-04  (-0.1614866E-04)
 number of electron    1418.9999767 magnetization 
 augmentation part      592.4753506 magnetization 

 Broyden mixing:
  rms(total) = 0.35601E-02    rms(broyden)= 0.35568E-02
  rms(prec ) = 0.55499E-02
  weight for this iteration     100.00

 eigenvalues of (default mixing * dielectric matrix)
  average eigenvalue GAMMA=   0.5645
  2.5498  1.6357  1.6357  1.0457  1.0457  0.8342  0.7786  0.4199  0.4199  0.2705
  0.2474  0.1876  0.1796  0.1652  0.1529  0.1433  0.1342  0.1305  0.1139  0.1119
  0.1078  0.1085

 Free energy of the ion-electron system (eV)
  ---------------------------------------------------
  alpha Z        PSCENC =     12618.89871921
  Ewald energy   TEWEN  =   -135854.36350015
  -Hartree energ DENC   =    -32763.30451310
  -exchange      EXHF   =         0.00000000
  -V(xc)+E(xc)   XCENC  =      3784.81022933
  PAW double counting   =    179279.62770244  -177148.49065896
  entropy T*S    EENTRO =        -0.12003163
  eigenvalues    EBANDS =    -21688.79709688
  atomic energy  EATOM  =    170619.86198914
  Solvation  Ediel_sol  =         0.00000000
  ---------------------------------------------------
  free energy    TOTEN  =     -1151.87716061 eV

  energy without entropy =    -1151.75712898  energy(sigma->0) =    -1151.83715007


--------------------------------------------------------------------------------------------------------




--------------------------------------- Iteration      2(  24)  ---------------------------------------


    POTLOK:  cpu time      0.0597: real time      0.0725
    SETDIJ:  cpu time      0.0080: real time      0.0080
     EDDAV:  cpu time    456.1087: real time    456.4258
       DOS:  cpu time      0.0040: real time      0.0040
    CHARGE:  cpu time      6.6443: real time      6.6493
    MIXING:  cpu time      0.0021: real time      0.0021
    --------------------------------------------
      LOOP:  cpu time    462.8269: real time    463.1617

 eigenvalue-minimisations  : 96512
 total energy-change (2. order) :-0.2768116E-05  (-0.6597460E-05)
 number of electron    1418.9999767 magnetization 
 augmentation part      592.4737146 magnetization 

 Broyden mixing:
  rms(total) = 0.37055E-02    rms(broyden)= 0.37034E-02
  rms(prec ) = 0.64400E-02
  weight for this iteration     100.00

 eigenvalues of (default mixing * dielectric matrix)
  average eigenvalue GAMMA=   0.5679
  2.5282  1.6974  1.6974  1.0665  1.0665  0.9940  0.8631  0.5021  0.4458  0.2712
  0.2506  0.1946  0.1791  0.1716  0.1535  0.1484  0.1367  0.1311  0.1139  0.1118
  0.1077  0.1086  0.1209

 Free energy of the ion-electron system (eV)
  ---------------------------------------------------
  alpha Z        PSCENC =     12618.89871921
  Ewald energy   TEWEN  =   -135854.36350015
  -Hartree energ DENC   =    -32763.35778142
  -exchange      EXHF   =         0.00000000
  -V(xc)+E(xc)   XCENC  =      3784.81306923
  PAW double counting   =    179276.57539658  -177145.46585430
  entropy T*S    EENTRO =        -0.12005704
  eigenvalues    EBANDS =    -21688.71914462
  atomic energy  EATOM  =    170619.86198914
  Solvation  Ediel_sol  =         0.00000000
  ---------------------------------------------------
  free energy    TOTEN  =     -1151.87716338 eV

  energy without entropy =    -1151.75710634  energy(sigma->0) =    -1151.83714437


--------------------------------------------------------------------------------------------------------




--------------------------------------- Iteration      2(  25)  ---------------------------------------


    POTLOK:  cpu time      0.0626: real time      0.0679
    SETDIJ:  cpu time      0.0079: real time      0.0079
     EDDAV:  cpu time    448.4248: real time    448.7436
       DOS:  cpu time      0.0084: real time      0.0084
    CHARGE:  cpu time      6.6819: real time      6.6900
    MIXING:  cpu time      0.0022: real time      0.0022
    --------------------------------------------
      LOOP:  cpu time    455.1878: real time    455.5201

 eigenvalue-minimisations  : 94464
 total energy-change (2. order) : 0.4368259E-05  (-0.4728922E-05)
 number of electron    1418.9999767 magnetization 
 augmentation part      592.4711349 magnetization 

 Broyden mixing:
  rms(total) = 0.21158E-02    rms(broyden)= 0.21139E-02
  rms(prec ) = 0.32385E-02
  weight for this iteration     100.00

 eigenvalues of (default mixing * dielectric matrix)
  average eigenvalue GAMMA=   0.5623
  2.5292  1.7942  1.6714  1.0786  1.0786  1.0395  0.8707  0.5701  0.4333  0.2726
  0.2493  0.2493  0.1875  0.1795  0.1652  0.1572  0.1470  0.1328  0.1320  0.1077
  0.1085  0.1117  0.1144  0.1144

 Free energy of the ion-electron system (eV)
  ---------------------