125
Lattice="-7.32060916410201 7.319337295524605 7.321789780937772 7.317974618296534 -7.320027788227948 7.31984589126559 7.32234188632238 7.321760647421058 -7.322480236857273" Properties=species:S:1:pos:R:3:energies:R:1:forces:R:3 energy=-1111.2492725445043 free_energy=-1111.2492725445043 stress="0.00013442978466046994 -0.00019703427891619305 8.132380503844318e-05 -0.00019703427891619305 0.00010571616729086695 -2.3013429613141125e-05 8.132380503844318e-05 -2.3013429613141125e-05 -0.00014574555872112012" pbc="T T T"
Cr       1.45131192       1.46573203      -1.46652941      -7.32648267       0.00106978       0.00080673       0.00064587
Cr       0.02390689       2.89675653       2.91358733      -7.42711044       0.00216492      -0.00281454      -0.00042110
Cr      -1.47097574       4.38683159       4.41789338      -7.37604230      -0.00214357      -0.00207223       0.00857382
Cr       2.92268620       8.77931735       2.93990969      -7.23691531      -0.00114721       0.00078204      -0.00130385
Ti       5.86226024      -2.92393391       2.93187986      -7.98311300       0.00112215      -0.00027683       0.00275294
Ti       8.78126906      -0.00564648       0.00247893      -7.94468713      -0.00105294       0.00049651       0.00013063
Ti       2.93253009       5.86617868      -2.92672671      -7.93654672      -0.00185013      -0.00129041      -0.00081059
Ti       7.32316413       1.47985580       1.47738052      -7.94708774      -0.00193132      -0.00002849       0.00075944
Ti       0.01018209       5.85888393      -0.01675746      -7.97012701       0.00075404      -0.00037214      -0.00055853
Ti       5.85096835       2.93489906       2.93389593      -7.98591153       0.00135399      -0.00107645       0.00014540
Ti       2.91392405      -2.93453191       8.78210914      -7.98434123      -0.00019778       0.00160036      -0.00159783
Ti       0.01832299       5.84492300       2.90889557      -8.32690171       0.00401689       0.00466388      -0.00566952
Ti       0.02120420       2.90232803       5.86351158      -8.30922690      -0.00344643       0.00104200      -0.00042034
Ti       1.47144480       4.38101326       4.40493457      -8.35182908      -0.00035621       0.00007952       0.00125062
Ti      -4.40727782       4.39318417       7.32309065      -8.50329962      -0.00176501       0.00274980       0.00119267
Ti       0.00752983       8.79424494       2.92669524      -8.12694510       0.00214395      -0.00055624      -0.00086743
V       -0.00687396       0.00282131      -0.00157612      -9.10620516      -0.00251972       0.00068817       0.00226906
V        2.92396578       2.93791296      -2.93456626      -9.02820280       0.00267924       0.00129463      -0.00062356
V        4.38778499       4.40017683      -4.39230968      -8.93942824      -0.00131330      -0.00080910       0.00160990
V        5.85456739       5.85700138      -5.86600180      -8.94977292      -0.00195704       0.00173157      -0.00045451
V        1.45466953      -1.45791538       1.46712287      -9.03570081       0.00285319      -0.00098539      -0.00050974
V        2.91439524       0.00813971       0.00823833      -9.01994797       0.00229518       0.00101599       0.00311998
V        4.39244540       1.46464888      -1.46601760      -9.13306018      -0.00029151       0.00016443      -0.00028881
V        5.85198478       2.95700756      -2.93387736      -8.93841437      -0.00054056       0.00062643       0.00117314
V        7.31992784       4.39327373      -4.39971886      -8.98098899       0.00107097      -0.00314054       0.00182471
V        2.92822872      -2.92094218       2.93128880      -9.04894910      -0.00112481      -0.00152096       0.00095332
V        4.38859011      -1.45942190       1.47556255      -8.93970788      -0.00020977       0.00038042      -0.00139497
V        5.86121623       0.00654232       0.03388985      -9.03614381      -0.00041059       0.00018968       0.00109715
V        7.30002559       1.46275047      -1.48328437      -9.04256897       0.00068521       0.00074221      -0.00084076
V        8.78734645       2.95181356      -2.91217655      -9.05148477      -0.00023641       0.00163989      -0.00115740
V        4.40559550      -4.38360985       4.39835576      -9.03550564       0.00188915       0.00190189      -0.00069499
V        7.31878193      -1.45304487       1.48040058      -8.94902307      -0.00102963       0.00022504       0.00040539
V       10.25483137       1.46236762      -1.45564397      -9.10850152      -0.00283793       0.00102375      -0.00098814
V        5.84442336      -5.86066239       5.85542080      -9.10800697       0.00289055      -0.00110414      -0.00074768
V        7.31568167      -4.38840695       4.38616132      -9.07608139      -0.00241110       0.00167997      -0.00326634
V        8.78664517      -2.91879055       2.92439750      -8.98066895      -0.00142864       0.00044080       0.00207991
V       10.25761741      -1.46183286       1.47063989      -8.91937461       0.00066640      -0.00084295       0.00039659
V       11.71347150      -0.00341830       0.00433425      -8.90358719       0.00010819       0.00036111       0.00135866
V       -1.46089543       1.45631485       1.46795611      -9.14772938       0.00305580       0.00098584      -0.00096391
V       -0.00640280       2.92313408      -0.01740478      -9.16597157      -0.00117230       0.00210932       0.00192658
V        1.47373153       4.40236973      -1.47816222      -9.07603222      -0.00000634       0.00006044      -0.00042895
V        4.39469191       7.31627638      -4.38790321      -8.99606150      -0.00061031       0.00181250       0.00155300
V       -0.00626529      -0.02172553       2.92388781      -9.05981628      -0.00049686       0.00308911      -0.00070168
V        1.46328843       1.45474832       1.47175610      -9.17503289      -0.00032780       0.00103111       0.00026009
V        2.93075109       2.92964282      -0.00572050      -9.13240995       0.00124869       0.00046721       0.00052573
V        4.39373938       4.40768619      -1.47016908      -8.97245593       0.00002279       0.00009078      -0.00102556
V        5.85305016       5.85641529      -2.92771762      -8.90524181      -0.00138938      -0.00072250       0.00232988
V        1.46351654      -1.46411412       4.39852250      -8.93444075       0.00251053      -0.00095649      -0.00041206
V        2.92833962      -0.00527232       2.93299877      -9.03232293       0.00032267       0.00145920      -0.00030057
V        4.39936958       1.47173055       1.47362368      -8.96686484      -0.00090092      -0.00114164      -0.00143357
V        5.85820802       2.93580603       0.01393577      -8.95259353      -0.00072623      -0.00073327      -0.00011366
V        7.32137974       4.40146269      -1.46783583      -8.97440370      -0.00022170      -0.00060489      -0.00093901
V        2.92671376      -2.92192453       5.86067611      -8.97588141      -0.00006175      -0.00037008       0.00014729
V        4.39080894      -1.45948555       4.39443009      -8.94237697       0.00040987      -0.00088287      -0.00024437
V        5.86121282       0.00909285       2.93309405      -8.92034929       0.00106474      -0.00039168      -0.00058306
V        8.78189176       2.92445494       0.00396777      -8.94938827       0.00051182       0.00168498       0.00073461
V        4.38861210      -4.39004735       7.32081669      -9.01015812       0.00018020       0.00188343       0.00127335
V        5.85058314      -2.92131416       5.84662005      -8.97078019       0.00011355       0.00031793      -0.00258940
V        7.32356409      -1.45995877       4.39584992      -8.92263160       0.00049134      -0.00186357      -0.00029064
V        8.78903448       0.00401649       2.92133875      -9.02536349      -0.00115319      -0.00045731       0.00051720
V       10.24473138       1.46729808       1.46687785      -8.93270386      -0.00098585       0.00014461       0.00098426
V       -2.93860443       2.92295445       2.92365866      -9.25096825      -0.00188431      -0.00079775       0.00048460
V       -1.46812664       4.37883164       1.44849036      -9.18215953      -0.00032403       0.00012787      -0.00181532
V        1.47147247       7.31543940      -1.47732171      -9.20172908       0.00036721       0.00111931      -0.00039090
V        2.92907247       8.78420736      -2.92689229      -9.44431491       0.00017911      -0.00167007      -0.00074673
V       -1.46175623       1.46512363       4.38908077      -9.20131816      -0.00018397       0.00010877       0.00100656
V        1.47646978       4.37820938       1.45847763      -9.14206662      -0.00020506      -0.00082633       0.00026810
V        2.93456941       5.86085230      -0.00971749      -8.96804038      -0.00127684      -0.00112826       0.00017543
V        4.39307157       7.31998599      -1.46777115      -9.01145647       0.00215954       0.00034719      -0.00022185
V        0.00052439       0.00019176       5.86052397      -8.96180242      -0.00219380       0.00222885      -0.00005162
V        1.46408133       1.45585834       4.38563119      -9.10173522      -0.00097783       0.00045761       0.00037670
V        2.94813517       2.92843902       2.93078547      -9.07899025       0.00023970      -0.00282759      -0.00125940
V        4.40688265       4.39250641       1.46209620      -8.96400688      -0.00057676      -0.00016187      -0.00127717
V        5.85711285       5.86373730      -0.00046292      -8.96157940      -0.00154217      -0.00008562      -0.00060908
V        1.46491503      -1.46633196       7.31797544      -8.92224822       0.00146947      -0.00227347       0.00082285
V        2.93178963      -0.00173094       5.85565445      -8.96901076       0.00095855      -0.00105961      -0.00056869
V        4.40261381       1.46269915       4.39106525      -8.96095010       0.00046595      -0.00141362      -0.00035741
V        7.31749114       4.38860827       1.46772834      -8.91477723       0.00080389      -0.00014543       0.00105305
V        4.38518558      -1.46461870       7.31955397      -8.92071050      -0.00053286      -0.00095398       0.00007496
V        5.84984443       0.01340252       5.85081954      -9.03107311       0.00086928      -0.00062120      -0.00126263
V        7.32283028       1.47025092       4.38781863      -9.40080646      -0.00101625      -0.00084256      -0.00004334
V        8.77585322       2.92732480       2.91967032      -9.23478502      -0.00022209       0.00063830      -0.00113384
V       -4.40973952       4.37941615       4.39137558      -9.48832738       0.00103716       0.00195694       0.00048826
V       -2.94095212       5.86886669       2.92625768      -9.16817729      -0.00161149       0.00142298      -0.00082809
V       -1.46708698       7.32445807       1.43144823      -9.02160364       0.00072193      -0.00035600       0.00169785
V        0.00263579       8.78532859      -0.01016821      -9.41754177      -0.00029319      -0.00085181       0.00114582
V       -2.93308410       2.91628956       5.86280368      -9.31554786       0.00406911       0.00162272      -0.00192554
V        1.47025576       7.30167991       1.43582970      -9.14279081      -0.00072975      -0.00058478       0.00065335
V        2.92616610       8.78806189      -0.01013496      -9.53583755      -0.00181088      -0.00102566       0.00239475
V       -1.46487738       1.46420703       7.31471610      -9.05638742       0.00157795      -0.00022459      -0.00060821
V        2.93181967       5.84927490       2.92983678      -9.17262095      -0.00123287       0.00114908      -0.00087371
V        4.40877627       7.31898765       1.45519347      -9.03219477       0.00010242      -0.00086732      -0.00055520
V       -0.00307834      -0.00737884       8.78103499      -8.96607062      -0.00259139       0.00052644       0.00072651
V        1.45629191       1.46780445       7.31330403      -8.94163380       0.00010925       0.00055762      -0.00063201
V        2.93029162       2.92719188       5.85825334      -9.00198270      -0.00140982       0.00067820      -0.00126058
V        4.39889266       4.38459992       4.39013112      -8.89965654      -0.00085611      -0.00037676       0.00011092
V        5.85705796       5.85702838       2.92964206      -8.95664965       0.00137482       0.00058001      -0.00007764
V        1.45938196      -1.46366773      10.24267440      -9.05568226       0.00228248      -0.00081224      -0.00130893
V        2.91721405       0.00234410       8.77168552      -8.91905655       0.00225065      -0.00195812       0.00187723
V        4.39067404       1.46871822       7.31529361      -8.95328326       0.00085400      -0.00066019      -0.00014656
V        5.84700400       2.92905648       5.85177833      -9.19547490       0.00193772      -0.00043618      -0.00008611
V        7.31524574       4.39086707       4.39106301      -9.40597295      -0.00071027      -0.00048686      -0.00132780
V       -5.87282968       5.85525784       5.85405281      -9.32236184       0.00151763      -0.00276212       0.00244655
V       -4.42135683       7.32440381       4.38665573      -9.09363139       0.00223742      -0.00018862      -0.00321591
V       -2.91080694       8.77693265       2.93690983      -9.03073552      -0.00012292       0.00071166       0.00043404
V       -1.47054261      10.25939220       1.44870165      -9.00534747       0.00070197      -0.00008688      -0.00058053
V       -0.00434017      11.71178519      -0.00346925      -9.35314939       0.00276111      -0.00069126       0.00017846
V       -2.93999448       5.87834008       5.86087414      -9.21723839       0.00328844      -0.00161751      -0.00139588
V        1.45203184      10.26621358       1.45310127      -9.28802095      -0.00053645       0.00018928       0.00085926
V       -2.91803561       2.93154547       8.78491072      -9.11494998       0.00166764      -0.00066039      -0.00055512
V       -1.46155898       4.38295950       7.33587549      -9.09404619       0.00037224      -0.00061501      -0.00177601
V        0.00323029       5.86860394       5.87714592      -9.20551312      -0.00163133      -0.00198002      -0.00111858
V        1.48590520       7.28591147       4.42148240      -9.10476788      -0.00256313      -0.00064610       0.00095887
V       -1.46001107       1.46217851      10.24554245      -9.07619713       0.00046738       0.00108823       0.00120618
V       -0.00087862       2.92811804       8.77974222      -8.89817415      -0.00099602      -0.00048155      -0.00024278
V        1.46544183       4.39346691       7.31774953      -8.99339591      -0.00108409      -0.00002811      -0.00109865
V        2.93215041       5.84558820       5.85914740      -9.00531424      -0.00130000      -0.00103786       0.00061760
V        4.41029381       7.31469247       4.39950852      -9.06387276       0.00271761       0.00046964      -0.00099362
V       -0.00323248       0.00251208      11.71906801      -9.04062412      -0.00357042       0.00121455      -0.00333594
V        1.46079106       1.46739639      10.23538209      -9.05677548       0.00008396       0.00090500       0.00148125
V        2.94082452       2.92621026       8.78427465      -8.97011515      -0.00107287       0.00022342       0.00153934
V        4.39667941       4.39202988       7.32468705      -8.95972249       0.00044314      -0.00092667       0.00167365
V        5.85163696       5.85200013       5.85802516      -9.06429772      -0.00065753       0.00089422      -0.00056453
W        1.45048486      10.24557168      -1.48315798      -6.60247371      -0.00185908      -0.00060730      -0.00174080
Zr      -1.48826093       7.30026797       4.42435137      -8.00862265      -0.00195472       0.00011081       0.00188592
