128
Lattice="12.04 0.0 0.0 0.0 12.04 0.0 0.0 0.0 12.04" Properties=species:S:1:pos:R:3:forces:R:3 stress="-0.027038891616311872 -0.000178731855328793 -0.00015297938867539867 -0.000178731855328793 -0.02728870177756622 -0.00022422621534735608 -0.00015297938867539867 -0.00022422621534735608 -0.026801140050688725" free_energy=-1152.18743844 energy=-1152.15877908 pbc="T T T"
Cr       0.00000000       3.01000000       9.03000000      -0.07286500      -0.14148600      -0.10664500
Cr       1.50500000      10.53500000      10.53500000       0.09480400       0.14246200       0.06955800
Cr       7.52500000       1.50500000      10.53500000       0.15828900      -0.14464400      -0.20196900
Cr      10.53500000       1.50500000       4.51500000      -0.00930900       0.12441600       0.07130800
Cr       9.03000000       0.00000000       9.03000000       0.14246100      -0.13914500       0.35882200
Cr       9.03000000       6.02000000       6.02000000      -0.27048100      -0.08026400      -0.27610600
Ti       0.00000000       0.00000000       6.02000000      -0.20146400       0.14479300      -0.26958600
Ti       4.51500000      10.53500000      10.53500000      -0.17385600       0.31260300      -0.24810500
Ti       7.52500000       1.50500000       7.52500000       0.21705000      -0.23021200       0.15466800
Ti       7.52500000       4.51500000       7.52500000       0.18766000       0.19713800      -0.18232200
Ti       6.02000000       9.03000000       0.00000000       0.32431300      -0.03776100       0.24719500
Ti      10.53500000       1.50500000       1.50500000       0.20367700      -0.21641300      -0.30286200
Ti       9.03000000       3.01000000       3.01000000      -0.25507700      -0.24809900       0.23241300
Ti      10.53500000       4.51500000       4.51500000       0.04039100       0.43579900       0.45097600
Ti       9.03000000       6.02000000       0.00000000       0.16591700      -0.04015900      -0.02884200
Ti      10.53500000       7.52500000       7.52500000       0.36989600      -1.23874400      -0.10773700
Ti       9.03000000       9.03000000       9.03000000      -0.48346900       0.23468200       0.65597200
V        0.00000000       0.00000000       0.00000000       0.42474700      -0.46258000      -0.41457200
V        1.50500000       1.50500000       1.50500000      -0.66776600       0.39974300      -0.72356100
V        0.00000000       0.00000000       3.01000000      -0.34782800       0.32409100       0.35411000
V        1.50500000       1.50500000       4.51500000      -0.28801900       0.70273800       0.41103000
V        1.50500000       1.50500000       7.52500000       0.06351100       0.43022900       0.49124300
V        0.00000000       0.00000000       9.03000000       0.21231400       0.05557500       0.17748400
V        1.50500000       1.50500000      10.53500000      -0.20031600      -0.02069400      -0.20485000
V        0.00000000       3.01000000       0.00000000       0.07050900       0.12278800      -0.10945500
V        1.50500000       4.51500000       1.50500000      -0.30045000       0.02609700      -0.12204800
V        0.00000000       3.01000000       3.01000000       0.10499700      -0.23324200       0.23609900
V        1.50500000       4.51500000       4.51500000      -0.34926400       0.00876600       0.35262100
V        0.00000000       3.01000000       6.02000000       0.05023900      -0.42193300       0.05815700
V        1.50500000       4.51500000       7.52500000      -0.20450400      -0.18491400      -0.05483600
V        0.00000000       6.02000000       0.00000000      -0.14822500       0.17619000       0.13873100
V        1.50500000       7.52500000       1.50500000       0.39954000      -0.40487300      -0.68676800
V        0.00000000       6.02000000       3.01000000       0.01562800      -0.07647900      -0.26656400
V        1.50500000       7.52500000       4.51500000       0.39590800      -0.44939100       0.65949600
V        0.00000000       6.02000000       6.02000000       0.60882100       0.03798400      -0.00965300
V        1.50500000       7.52500000       7.52500000      -0.10632200      -0.17427400      -0.10540500
V        0.00000000       6.02000000       9.03000000       0.17173100      -0.28863000       0.15171900
V        1.50500000       7.52500000      10.53500000       0.14315600       0.00442600       0.17127600
V        0.00000000       9.03000000       0.00000000       0.13368700       0.14041700      -0.32311600
V        1.50500000      10.53500000       1.50500000       0.02249000      -0.02294000      -1.03351700
V        1.50500000      10.53500000       4.51500000       0.24778900      -0.26227200       0.74736600
V        0.00000000       9.03000000       6.02000000       0.61313900       0.24905500      -0.04062700
V        1.50500000      10.53500000       7.52500000       0.40235200      -0.06715500       0.11577500
V        3.01000000       0.00000000       0.00000000      -0.39339000       0.11847900      -0.32668300
V        4.51500000       1.50500000       1.50500000       0.67239200       0.41532200      -0.68996500
V        4.51500000       1.50500000       4.51500000       0.70339000       0.40790100       0.63843300
V        3.01000000       0.00000000       6.02000000      -0.00882600       0.01235100       0.41663800
V        4.51500000       1.50500000       7.52500000       0.06038800       0.00798900       0.05896600
V        3.01000000       0.00000000       9.03000000      -0.44767100       0.09410700      -0.12042800
V        4.51500000       1.50500000      10.53500000      -0.04222800      -0.07078900      -0.03215900
V        3.01000000       3.01000000       0.00000000       0.10210000      -0.15663200      -0.11629400
V        4.51500000       4.51500000       1.50500000       0.16625300      -0.14794600      -0.13555200
V        4.51500000       4.51500000       4.51500000       0.31681100       0.04216400       0.31355900
V        3.01000000       3.01000000       6.02000000      -0.04936100      -0.03990200       0.22960700
V        4.51500000       4.51500000       7.52500000       0.03177800      -0.23376200      -0.01761000
V        3.01000000       3.01000000       9.03000000       0.18059500      -0.16619700      -0.16013300
V        4.51500000       4.51500000      10.53500000       0.05487300      -0.19767900      -0.14240100
V        3.01000000       6.02000000       0.00000000      -0.03480400       0.16376200      -0.10061600
V        4.51500000       7.52500000       1.50500000      -0.25156900       0.00444200       0.27464100
V        4.51500000       7.52500000       4.51500000       0.18280300       0.09191900      -0.07343700
V        3.01000000       6.02000000       6.02000000      -0.12521200      -0.15352300       0.11433600
V        3.01000000       6.02000000       9.03000000      -0.02581400       0.00487500      -0.02775600
V        4.51500000       7.52500000      10.53500000      -0.44515800      -0.07293400      -0.16942400
V        3.01000000       9.03000000       0.00000000      -0.46601200      -0.09152000       0.14137400
V        4.51500000      10.53500000       1.50500000       0.25942900      -0.22901600      -0.31748600
V        3.01000000       9.03000000       3.01000000       0.35812500      -0.20019500       0.00578400
V        4.51500000      10.53500000       4.51500000       0.53385700      -0.54175200       0.51538300
V        3.01000000       9.03000000       6.02000000      -0.14701100       0.17270500      -0.14775400
V        4.51500000      10.53500000       7.52500000      -0.01163800       0.25241300       0.08701500
V        3.01000000       9.03000000       9.03000000      -0.36700400       0.05694600       0.02171900
V        6.02000000       0.00000000       0.00000000       0.45549800       0.38305000       0.14246600
V        7.52500000       1.50500000       1.50500000      -0.26659100      -0.33456100      -0.26895900
V        6.02000000       0.00000000       3.01000000       0.40363200       0.02011100      -0.00383500
V        7.52500000       1.50500000       4.51500000      -0.29932200      -0.20049000       0.30975400
V        6.02000000       0.00000000       6.02000000      -0.23583600      -0.29620800      -0.31016900
V        6.02000000       0.00000000       9.03000000       0.10551700       0.22054500       0.18879300
V        6.02000000       3.01000000       0.00000000       0.22406000      -0.32685500      -0.19234000
V        7.52500000       4.51500000       1.50500000      -0.39829700      -0.13535200       0.16498900
V        6.02000000       3.01000000       3.01000000       0.24418900      -0.06864500       0.00703900
V        7.52500000       4.51500000       4.51500000      -0.09535300       0.44776700       0.50105200
V        6.02000000       3.01000000       6.02000000      -0.48952600      -0.00294700      -0.50570900
V        6.02000000       3.01000000       9.03000000      -0.35401900      -0.19080200       0.67343000
V        7.52500000       4.51500000      10.53500000      -0.08411700      -0.41170500      -0.43463400
V        7.52500000       7.52500000       1.50500000       0.08092900       0.09945400       0.64242100
V        6.02000000       6.02000000       3.01000000       0.24983100       0.02810700       0.20387900
V        7.52500000       7.52500000       4.51500000      -0.38381900      -0.71940400      -0.32590400
V        6.02000000       6.02000000       6.02000000      -0.20513100       0.16766700      -0.40749000
V        7.52500000       7.52500000       7.52500000      -0.44780400      -1.07236000       0.02416600
V        6.02000000       6.02000000       9.03000000      -0.15606200       0.09327200       0.19118100
V        7.52500000       7.52500000      10.53500000      -0.10616800      -0.12270400      -0.33861300
V        7.52500000      10.53500000       1.50500000       0.23751200       0.29760400       0.17958700
V        6.02000000       9.03000000       3.01000000       0.00999900       0.00688800       0.00821300
V        7.52500000      10.53500000       4.51500000      -0.55265100       0.61614300      -0.54789400
V        6.02000000       9.03000000       6.02000000      -0.20558800       0.11620800      -0.16689200
V        7.52500000      10.53500000       7.52500000      -0.58967400       1.04480500       0.49361300
V        6.02000000       9.03000000       9.03000000       0.41372000      -0.07073200      -0.13156800
V        7.52500000      10.53500000      10.53500000       0.14644000       0.72250200      -0.15232700
V        9.03000000       0.00000000       0.00000000      -0.46524800      -0.06687200      -0.35442700
V        9.03000000       0.00000000       3.01000000      -0.09690100      -0.12118000       0.46871700
V        9.03000000       0.00000000       6.02000000       0.34934400       0.28629200      -0.49885200
V       10.53500000       1.50500000       7.52500000      -0.30171100       0.29126700       0.70813500
V       10.53500000       1.50500000      10.53500000       0.04926400      -0.03473600      -0.34357200
V        9.03000000       3.01000000       0.00000000      -0.40919200       0.10484900      -0.41778600
V       10.53500000       4.51500000       1.50500000       0.57919800      -0.01797700      -0.00376000
V        9.03000000       3.01000000       6.02000000       0.47588800      -0.55459200      -0.51003100
V       10.53500000       4.51500000       7.52500000       0.01385300      -0.03582300      -0.04327100
V        9.03000000       3.01000000       9.03000000       0.33053700      -0.16320500       0.74812600
V       10.53500000       4.51500000      10.53500000       0.22897000      -0.47531200      -0.48521700
V       10.53500000       7.52500000       1.50500000      -0.23004300      -0.29546000      -0.28059000
V        9.03000000       6.02000000       3.01000000      -0.26859200       0.31135300      -0.34469000
V       10.53500000       7.52500000       4.51500000      -0.18366700      -1.34442800       0.25057800
V        9.03000000       6.02000000       9.03000000       0.01510100       0.02010600       0.61312600
V       10.53500000       7.52500000      10.53500000       0.44921300      -0.13481900       0.04910000
V        9.03000000       9.03000000       0.00000000      -0.01389700       0.04877900       0.05552600
V       10.53500000      10.53500000       1.50500000      -0.49944000       0.59254900      -0.60975700
V        9.03000000       9.03000000       3.01000000      -0.40910400       0.04966600      -0.34786300
V       10.53500000      10.53500000       4.51500000      -0.30713000       0.72157200      -0.17621800
V       10.53500000      10.53500000       7.52500000       0.27831700       0.88719700       0.63363800
V       10.53500000      10.53500000      10.53500000      -0.11870700       0.64026500       0.15639400
W        1.50500000       4.51500000      10.53500000      -0.22105700      -0.24068100      -0.18788900
W        0.00000000       9.03000000       9.03000000       0.54767200       0.54513900       0.49229200
W        3.01000000       3.01000000       3.01000000      -0.00431700       0.25056100       0.03070500
W        3.01000000       6.02000000       3.01000000      -0.01241200       0.36327200       0.01706500
W        4.51500000       7.52500000       7.52500000      -0.02250900      -0.04204900      -0.05589400
W        6.02000000       6.02000000       0.00000000       0.04483900      -0.00217200      -0.00130000
Zr       0.00000000       9.03000000       3.01000000       0.02324900       0.12417800       0.07026200
Zr       3.01000000       0.00000000       3.01000000      -0.08878300      -0.50068700       0.07767300
Zr       9.03000000       9.03000000       6.02000000      -0.14699900       0.25437300      -0.38109700
