128
Lattice="11.736635361891226 -0.00407584549339791 0.002664485705144228 -0.004075710617396691 11.738506413263783 0.0006529362281632765 0.002664967552593105 0.0006528921137531925 11.738346641132775" Properties=species:S:1:pos:R:3:energies:R:1:forces:R:3 energy=-1156.3005109250512 free_energy=-1156.3005109250512 stress="0.000698702170878341 0.00021847960087647956 -0.00029369432808872627 0.00021847960087647956 0.0007081421319454118 4.613342234526615e-05 -0.00029369432808872627 4.613342234526615e-05 -1.3636821405033802e-05" pbc="T T T"
Cr       0.01562072       2.93293570       8.81173539      -7.66660078       0.00116185       0.00052187       0.00033077
Cr       1.48646769      10.27025580      10.27558779      -7.56071713      -0.00016885      -0.00035462       0.00109040
Cr       7.30081755       1.49342932      10.26654560      -7.44545708       0.00014718      -0.00071776       0.00033242
Cr      10.25139433       1.48968001       4.35977719      -7.16988884       0.00135802      -0.00194118       0.00198263
Cr       8.83066665      -0.02532585       8.79536014      -7.48131330      -0.00125037       0.00080190      -0.00014139
Cr       8.78773272       5.87744439       5.83240218      -7.15293908       0.00279767      -0.00054914      -0.00246412
Ti       0.01800332      -0.02451353       5.88280088      -8.23949063      -0.00101107       0.00124261       0.00029561
Ti       4.39969301      10.27953498      10.25359565      -8.24169891      -0.00087532      -0.00021046       0.00126178
Ti       7.30139129       1.47114346       7.33052392      -8.33651427      -0.00021024      -0.00052512       0.00115273
Ti       7.32187571       4.38782487       7.35403296      -8.22310844      -0.00104690      -0.00011511       0.00051299
Ti       5.87072993       8.80518028       0.00254341      -8.27012627       0.00015567      -0.00132732       0.00025595
Ti      10.26861000       1.47376925       1.45952464      -8.19287131       0.00070212      -0.00008376      -0.00085362
Ti       8.76811737       2.95342281       2.90670691      -8.19449586      -0.00154681       0.00094850      -0.00202896
Ti      10.29503679       4.37403613       4.38184123      -8.34033708      -0.00090753       0.00277911       0.00070890
Ti       8.81374617       5.86507358       0.00192633      -8.29828922       0.00013649       0.00010194      -0.00160812
Ti      10.32120798       7.35183010       7.37004433      -8.59006467      -0.00038581      -0.00042873      -0.00208192
Ti       8.76897504       8.79795500       8.83909009      -8.51982783      -0.00168038      -0.00068564      -0.00067333
V       -0.01236752       0.01313292       0.00200911      -9.19016343      -0.00025598       0.00012970       0.00036599
V        1.47783970       1.47333125       1.47643955      -9.52816323      -0.00000611       0.00029463       0.00062505
V       -0.00287037      -0.00140651       2.94138681      -9.13447873      -0.00043691      -0.00007155       0.00038493
V        1.49002742       1.48161920       4.39425181      -9.53375007      -0.00038161      -0.00009366       0.00139591
V        1.49831942       1.47147688       7.33869951      -9.15828891      -0.00061717       0.00014575       0.00089798
V        0.00061004      -0.00540385       8.79194212      -9.61563177       0.00030052       0.00022592      -0.00025878
V        1.47888931       1.46608517      10.28749291      -9.46683722       0.00014020       0.00010252       0.00017960
V       -0.00251436       2.93930596      -0.00553196      -9.59387390      -0.00064001      -0.00061000       0.00054942
V        1.48354700       4.39316837       1.48674895     -10.06100217       0.00049712       0.00084873       0.00157153
V        0.03414039       2.94390990       2.92069146      -9.39848139       0.00082557       0.00029390      -0.00104470
V        1.48675294       4.39034453       4.39692245      -9.80877603       0.00020093       0.00087814      -0.00045494
V        0.00843227       2.93108189       5.86935138      -9.28453163       0.00008449      -0.00005683       0.00038894
V        1.48331471       4.40669275       7.31478157      -9.38496162      -0.00077881      -0.00040273       0.00081808
V        0.00737701       5.86387940      -0.00435692      -9.52681701      -0.00006437       0.00003893      -0.00059593
V        1.46770951       7.33820864       1.47551259      -9.47895768       0.00029037       0.00002719       0.00006613
V        0.02127587       5.86043632       2.92800604      -9.33270958       0.00052627       0.00003026      -0.00109785
V        1.47256538       7.33536189       4.40124086      -9.46323507       0.00017398       0.00022524      -0.00046264
V        0.02315557       5.85773554       5.87150894      -9.25385888      -0.00080794      -0.00004844      -0.00104124
V        1.46567588       7.34116271       7.34908529      -9.73892981       0.00007654       0.00056136       0.00034493
V        0.01333038       5.84460677       8.81204633      -9.84853862       0.00074777      -0.00112874      -0.00000151
V        1.46994154       7.34673265      10.26856513      -9.86400050      -0.00054969       0.00060852      -0.00058766
V       -0.00672559       8.78776089       0.00504717      -9.29432252       0.00033402      -0.00032114      -0.00120503
V        1.45720870      10.26173829       1.48497385      -9.19096202       0.00091248      -0.00010641       0.00094792
V        1.47832205      10.25547562       4.38597641      -9.04172048       0.00057825       0.00039274       0.00021578
V        0.03934546       8.81930081       5.87726606      -9.28626095      -0.00044573      -0.00033465      -0.00016575
V        1.47614378      10.24911116       7.36075191      -9.57906309      -0.00026270      -0.00043734       0.00074818
V        2.93685309       0.01769707      -0.00440578      -9.10426618       0.00035699      -0.00064265       0.00068114
V        4.39100049       1.47984516       1.47882559      -9.44573844       0.00026986       0.00057496       0.00123786
V        4.38705092       1.47563581       4.39568669      -9.40208432       0.00058154       0.00005688       0.00118224
V        2.93264002      -0.00279325       5.89109653      -8.98995315       0.00032498       0.00000017       0.00091224
V        4.39911749       1.46501378       7.33947306      -9.00333321      -0.00041942       0.00030304       0.00134579
V        2.93389626       0.00115641       8.79666303      -9.15688751      -0.00001910       0.00016870       0.00117950
V        4.39322037       1.47025644      10.27739592      -9.17742291      -0.00088098       0.00008534       0.00065940
V        2.93542454       2.94238814       0.00477577      -9.80094458       0.00095887      -0.00129245       0.00120708
V        4.40278753       4.40427155       1.47392354     -10.23937512       0.00017048      -0.00042312       0.00089761
V        4.38524724       4.39450331       4.39826028      -9.85811706       0.00021806       0.00004412      -0.00005102
V        2.93824127       2.93759310       5.87205081      -9.33584974       0.00005713       0.00010890       0.00107771
V        4.39775774       4.39615747       7.33703931      -9.26601013      -0.00102882      -0.00081783       0.00091049
V        2.93124157       2.94829660       8.80370411      -9.48434090      -0.00047941      -0.00022978       0.00074416
V        4.41751280       4.41233729      10.28359522      -9.76653721      -0.00080085      -0.00076201      -0.00070750
V        2.92441674       5.86366505       0.00127050      -9.99465088       0.00082049       0.00054576       0.00090831
V        4.40611809       7.32852616       1.46111761      -9.77538369       0.00127316       0.00047585      -0.00093174
V        4.39983589       7.33468772       4.40643986      -9.61265688       0.00014608       0.00094080      -0.00027825
V        2.93558407       5.86071865       5.86786306      -9.70301277      -0.00070680      -0.00058704      -0.00041775
V        2.93359484       5.86246430       8.80399891      -9.95214869      -0.00053290      -0.00024526      -0.00010920
V        4.39482948       7.32382276      10.27264439      -9.74159338      -0.00011038       0.00046792      -0.00025520
V        2.94832518       8.78238807       0.00257094      -9.22489331       0.00031534      -0.00019774       0.00008024
V        4.39029505      10.27302490       1.47468792      -9.01035579      -0.00014201       0.00011458       0.00150496
V        2.95597049       8.76970882       2.94798045      -9.22177345       0.00017196       0.00094026       0.00027417
V        4.40267017      10.26980104       4.41118762      -9.02117338      -0.00011884       0.00062520       0.00040995
V        2.94461829       8.79247822       5.88303636      -9.51209742       0.00012529      -0.00056457       0.00092074
V        4.39637294      10.26846188       7.34634581      -9.25633353      -0.00070836      -0.00038057       0.00126242
V        2.94435765       8.79316877       8.79848391      -9.74712185       0.00078973      -0.00209629      -0.00107849
V        5.85854726      -0.01100376       0.01457677      -9.08510797       0.00027069      -0.00018912       0.00059454
V        7.32758559       1.47750989       1.47769828      -9.10065215       0.00072801       0.00072628       0.00077544
V        5.87314262       0.00127521       2.94298166      -9.03226099       0.00023193      -0.00006319       0.00104663
V        7.32723822       1.47361860       4.40919867      -9.09979700      -0.00044567       0.00027412       0.00030329
V        5.85891100       0.00235628       5.87250916      -8.97856005      -0.00012142       0.00027721       0.00050737
V        5.84684442      -0.01577597       8.80256504      -9.18037296       0.00037481       0.00019847       0.00051414
V        5.85078367       2.94109426       0.01709384      -9.37563095       0.00007023      -0.00045411       0.00075013
V        7.32479921       4.39064119       1.47592654      -9.43277936       0.00028266      -0.00059885       0.00004251
V        5.86263001       2.93949222       2.93981857      -9.32822604       0.00016318       0.00007678       0.00012493
V        7.31383652       4.38668938       4.38476872      -9.09518728      -0.00029469       0.00007722      -0.00106942
V        5.85436750       2.93377917       5.87518559      -9.06542975      -0.00029614       0.00011244       0.00005264
V        5.84080978       2.94121160       8.80505080      -9.13565744      -0.00000268      -0.00020747      -0.00004058
V        7.31909712       4.40711331      10.28212721      -9.51923986       0.00003574      -0.00028011      -0.00130132
V        7.31987514       7.32977673       1.47427336      -9.35083049      -0.00052000       0.00014344      -0.00110612
V        5.85917899       5.87222323       2.94628489      -9.66773298       0.00069023      -0.00001362      -0.00039499
V        7.32489591       7.36270347       4.38893047      -9.16776154      -0.00048575       0.00151496      -0.00192807
V        5.84541446       5.86564010       5.86442954      -9.56385772       0.00061127      -0.00139138      -0.00154315
V        7.30174874       7.33266063       7.33177715      -9.36391837      -0.00019255       0.00148159       0.00089453
V        5.85979993       5.87168104       8.80913426      -9.70431712       0.00072159      -0.00054632      -0.00039287
V        7.32438107       7.32792337      10.26607372      -9.46745618      -0.00027310      -0.00001261      -0.00093150
V        7.32311052      10.27720803       1.47530684      -8.99280695       0.00051978       0.00014354       0.00024968
V        5.86168179       8.79656223       2.92679411      -9.06498798       0.00090098      -0.00030413       0.00045521
V        7.33242766      10.26422908       4.39836806      -9.05258374       0.00017454      -0.00016141      -0.00012930
V        5.84190915       8.80420922       5.86141636      -9.37818557       0.00062265      -0.00006035      -0.00064689
V        7.31843031      10.26557424       7.29831066      -9.21448317       0.00014333      -0.00012500       0.00105648
V        5.86703903       8.79476252       8.81334293      -9.47016458      -0.00005906      -0.00142795      -0.00068748
V        7.31079676      10.26969414      10.29776212      -9.16438966       0.00084203      -0.00033474      -0.00024490
V        8.80193469      -0.00987288       0.00724768      -9.21471381       0.00043730       0.00002095       0.00000213
V        8.78425163      -0.00014908       2.92453864      -9.07166558       0.00073284       0.00017975      -0.00008025
V        8.80620391       0.00955098       5.87087161      -9.22494510       0.00060444       0.00072499       0.00002779
V       10.26196337       1.47863694       7.33377552      -9.31449684      -0.00046930      -0.00082769      -0.00054584
V       10.27652699       1.46882543      10.29842579      -9.37536488      -0.00014153      -0.00033272       0.00052812
V        8.80294493       2.94690203       0.01767372      -9.19043582       0.00014291      -0.00042312       0.00003096
V       10.27657770       4.39046719       1.46964546      -9.04025060      -0.00008312       0.00016517      -0.00077190
V        8.78583467       2.92321649       5.87909494      -9.28191440       0.00006847       0.00053163      -0.00027032
V       10.26005162       4.39491482       7.33111231      -9.28708794      -0.00056581       0.00055418      -0.00113935
V        8.80759811       2.94998393       8.81388377      -9.34888280      -0.00084985       0.00010085      -0.00053081
V       10.25883465       4.41036049      10.28561795      -9.39606767      -0.00031093       0.00024274      -0.00070317
V       10.29061221       7.34649690       1.47592869      -8.97178637       0.00025125      -0.00015332      -0.00116599
V        8.79762224       5.85747816       2.91880148      -9.15496425       0.00041798       0.00018235      -0.00070007
V       10.28852108       7.36524444       4.37692554      -9.17720085      -0.00026272       0.00028898      -0.00059901
V        8.79804139       5.86469929       8.82925013      -9.24309605      -0.00072909      -0.00064529      -0.00128623
V       10.30449971       7.32588207      10.27328997      -9.48544954      -0.00022973      -0.00004815      -0.00067579
V        8.78788033       8.79910937      -0.00883586      -9.13404958       0.00017182      -0.00014882      -0.00113073
V       10.27444519      10.27123142       1.47643402      -9.06112492       0.00059116       0.00063649      -0.00000223
V        8.77404955       8.80076052       2.90055744      -9.02021111       0.00038828       0.00016262       0.00023655
V       10.24742868      10.23572583       4.38709001      -9.20957959       0.00015030       0.00042177      -0.00031265
V       10.28373198      10.23508449       7.32558218      -9.64225348       0.00010753       0.00047857      -0.00081874
V       10.29670892      10.26212933      10.28819073      -9.65717532      -0.00002084      -0.00008501       0.00110412
W        1.48465516       4.40501644      10.28375110      -6.80412411      -0.00214743      -0.00038658      -0.00404431
W       -0.01153249       8.78682969       8.80151673      -6.81021526       0.00125707      -0.00027887      -0.00008814
W        2.95308305       2.94765094       2.94520930      -6.92890202       0.00027304       0.00122390      -0.00040630
W        2.94477981       5.87152410       2.94181109      -6.95275401      -0.00151130      -0.00221455      -0.00041521
W        4.39156981       7.33173562       7.33477974      -6.68573520      -0.00263737       0.00307302       0.00310580
W        5.87509013       5.87187720       0.01032879      -6.59130075       0.00002002       0.00147966       0.00021749
Zr      -0.00543642       8.79788243       2.93782279      -7.95935764      -0.00019871       0.00018184       0.00023765
Zr       2.94135788       0.00288339       2.94078494      -8.09777021       0.00131751      -0.00164853       0.00080703
Zr       8.79495286       8.81594567       5.82981653      -8.12914490       0.00008396      -0.00017479      -0.00178544
