124
Lattice="-7.591332893 7.571263322 7.572119558 7.538506746 -7.580117697 7.52813586 7.578493281 7.567320257 -7.581026814" Properties=species:S:1:pos:R:3:forces:R:3 stress="0.004992620598848773 0.0006963339656291658 0.000755235087250126 0.0006963339656291658 0.004374193150128883 0.0011527755280050084 0.000755235087250126 0.0011527755280050084 0.004316390534114077" free_energy=-1097.06737045 energy=-1097.04888532 pbc="T T T"
Cr       1.43924000       1.44848000      13.58396000       0.00015200      -0.00019900      -0.00010500
Cr      -0.02317000       2.95768000       2.97210000       0.00051300      -0.00020100      -0.00015300
Cr      -1.57216000       4.47498000       4.50294000      -0.00032000      -0.00020300       0.00013200
Cr       3.02435000       9.08282000       2.99519000       0.00014600      -0.00050100       0.00019100
Ti      -1.57316000       4.50584000      10.58864000       0.00051700       0.00037300       0.00047600
Ti       1.48334000       7.51753000       7.47077000      -0.00014700       0.00043900       0.00012400
Ti       3.04574000       6.03250000      -3.01530000      -0.00006000       0.00001400      -0.00011500
Ti       7.49152000       1.58978000       1.55672000      -0.00051500      -0.00001100       0.00027400
Ti      -0.00527000       6.03537000       0.01392000       0.00026900      -0.00011400      -0.00002200
Ti       6.32561000       3.38338000       3.36151000      -0.00071100       0.00080600      -0.00017200
Ti      10.53301000       4.49558000       1.43382000      -0.00001500       0.00011700       0.00041300
Ti      -0.03709000       5.99808000       2.89586000      -0.00005800      -0.00022200       0.00036200
Ti      -0.07691000       3.00294000       6.04269000      -0.00018100       0.00009400       0.00021500
Ti       1.55336000       4.46449000       4.45497000      -0.00013300      -0.00057500      -0.00021100
Ti       2.94478000      12.12029000      -0.02172000      -0.00061300      -0.00056600      -0.00051900
Ti       0.01834000       9.17049000       2.92313000       0.00056800      -0.00014700       0.00031800
V        7.54073000       7.53866000       7.45361000      -0.00040900      -0.00044000      -0.00005000
V        2.93421000       2.97105000      12.08867000      -0.00038500       0.00008200      -0.00012300
V        4.52046000       4.49978000      10.51934000       0.00020000       0.00003400      -0.00059400
V        6.02226000       6.05355000       8.99319000      -0.00015600       0.00000600      -0.00000600
V        9.01529000       6.10278000      -6.06223000       0.00044400      -0.00025900      -0.00001200
V       -4.65248000       7.57924000       7.53068000      -0.00065700      -0.00033600      -0.00052700
V        4.42909000       1.59285000      -1.40834000      -0.00027700      -0.00051800      -0.00013800
V        5.99123000       3.13806000      -3.02570000       0.00012600       0.00022400       0.00026100
V        7.56503000       4.56845000      -4.55730000       0.00019600      -0.00004200      -0.00033700
V        2.99211000      -2.99229000       3.00681000       0.00008500      -0.00048800       0.00002200
V        4.46959000      -1.42203000       1.51859000       0.00031600      -0.00015000      -0.00015600
V        5.95152000      -0.02072000       0.04422000      -0.00023300       0.00007700      -0.00013400
V        7.64332000       1.75269000      -1.47063000       0.00008800       0.00018100       0.00092200
V        9.14946000       3.09154000      -3.07527000       0.00004500      -0.00016700       0.00016000
V        4.46536000      10.53555000       4.49153000      -0.00017900      -0.00034100       0.00006400
V        7.52849000      -1.51596000       1.49715000      -0.00053600       0.00007500       0.00036100
V        3.06718000       9.10311000       5.98977000       0.00008100       0.00013100       0.00054000
V        6.01754000       9.05485000       6.02258000      -0.00062700       0.00042100       0.00028500
V        7.59445000      -4.60038000       4.56269000      -0.00021000      -0.00034500       0.00020700
V        1.40489000       4.49781000      10.54808000       0.00021200       0.00061000       0.00004900
V       10.62731000      -1.52891000       1.53413000       0.00029800       0.00015400       0.00032900
V        4.55016000       7.55661000       7.52208000      -0.00038000       0.00028700       0.00016300
V       -1.44312000       1.50311000       1.49946000      -0.00028200       0.00013900       0.00076000
V        7.57010000      -4.62364000       7.48256000      -0.00001100      -0.00031900      -0.00029500
V        9.03934000      -3.12409000       6.01546000       0.00014700      -0.00012700      -0.00045400
V        4.59486000       7.58778000      -4.59257000       0.00018900       0.00031400      -0.00021900
V        7.58435000       7.54182000      -4.59542000       0.00000000       0.00029400       0.00011500
V        1.50420000       1.49037000       1.51015000       0.00028000      -0.00026700       0.00013800
V        3.00892000       2.98541000      -0.00986000      -0.00091100      -0.00029000      -0.00015200
V        4.55990000       4.52833000      -1.46921000       0.00043500      -0.00043500      -0.00015600
V        6.05241000       6.05768000      -3.05864000      -0.00036500       0.00018700      -0.00001100
V        1.48888000      -1.47916000       4.50197000       0.00008700       0.00009600      -0.00026000
V        3.00643000       0.02211000       3.00398000      -0.00064200      -0.00005300      -0.00013200
V        4.53678000       1.52961000       1.53241000      -0.00010100      -0.00076800      -0.00007800
V        5.99384000       3.12976000      -0.02910000       0.00023600       0.00065800      -0.00032800
V        7.55770000       4.60565000      -1.57411000      -0.00029500      -0.00020900       0.00037400
V        3.02987000      -2.99531000       5.99141000      -0.00018600       0.00006400       0.00028900
V        4.47672000      -1.48230000       4.53325000       0.00003200       0.00009000      -0.00039400
V        5.99363000      -0.08618000       3.03985000       0.00004000       0.00052100       0.00029400
V        9.07417000       3.01230000      -0.12717000      -0.00044600       0.00018500      -0.00031400
V        4.57806000      -4.60159000       7.48243000       0.00004900      -0.00025700      -0.00015500
V        6.02437000      -3.07675000       5.96714000      -0.00030900       0.00008800       0.00024100
V        7.60300000      -1.54004000       4.54614000      -0.00012200      -0.00020100      -0.00003500
V        9.11001000      -0.00851000       2.95085000      -0.00011400       0.00070200       0.00079000
V       10.62772000       1.51801000       1.49988000       0.00020500       0.00040300       0.00058500
V       -2.99367000       3.00539000       3.06740000       0.00029500       0.00122900      -0.00014700
V        5.97417000      -3.18635000       9.02429000      -0.00033600       0.00008600       0.00058700
V        1.56901000       7.62995000      -1.46659000       0.00016000       0.00014900      -0.00004900
V        3.05583000       9.06766000      -3.05791000       0.00040000      -0.00058200       0.00061000
V        6.09439000       9.02216000      -3.13676000       0.00056300      -0.00010600       0.00021100
V        1.57007000       4.38766000       1.50720000       0.00028300      -0.00065900      -0.00022200
V        3.02940000       6.04196000      -0.03431000       0.00005300      -0.00029700      -0.00009300
V        4.59405000       7.60237000      -1.50898000      -0.00029300      -0.00034400      -0.00024800
V       -0.02300000       0.00657000       6.01544000       0.00016300       0.00019500      -0.00002700
V        1.51955000       1.50480000       4.45647000       0.00050700      -0.00018000      -0.00054700
V        3.11159000       2.95986000       2.98216000      -0.00007000      -0.00032100       0.00026900
V        4.57805000       4.58878000       1.52536000       0.00024000      -0.00004100      -0.00014800
V        6.04544000       6.08663000      -0.01691000       0.00069500      -0.00063900       0.00003100
V        1.46446000      -1.44891000       7.49067000       0.00008200      -0.00021700      -0.00036200
V        2.97387000       0.00445000       6.02261000       0.00004300       0.00013300      -0.00002400
V        4.54207000       1.52145000       4.54649000       0.00030200      -0.00003200      -0.00031600
V        7.57620000       4.60119000       1.35770000      -0.00020500       0.00020900      -0.00019500
V        4.53845000      -1.52174000       7.47985000       0.00000800      -0.00001700      -0.00022000
V        5.98141000       0.00258000       6.01031000       0.00008300       0.00060400       0.00021600
V        7.54681000       1.35445000       4.53504000      -0.00039800      -0.00145200      -0.00025300
V        9.07683000       3.07316000       3.10021000       0.00047400       0.00137200       0.00008700
V       -4.50818000       4.55802000       4.51676000      -0.00005200      -0.00047300      -0.00037600
V       -3.05271000       6.00041000       3.05660000      -0.00002300       0.00021700      -0.00015800
V        5.80789000       0.03555000       8.98085000      -0.00053400       0.00011500      -0.00013900
V        7.50769000       1.49872000       7.53799000       0.00007200      -0.00066200       0.00053100
V       -3.01023000       3.00981000       5.99994000       0.00030900       0.00069100       0.00004700
V        1.67303000       7.63459000       1.49075000      -0.00025300      -0.00015200       0.00010800
V        3.03868000       9.09054000      -0.04268000       0.00031600      -0.00071400       0.00030600
V        6.01853000       9.01871000       0.02053000       0.00041200       0.00008300       0.00006100
V        3.08801000       6.06259000       2.93767000       0.00015200      -0.00003600       0.00022800
V        4.54675000       7.56524000       1.49646000      -0.00040400       0.00033900       0.00013600
V       -0.01813000      -0.01289000       9.07606000       0.00009300       0.00002700      -0.00013900
V        1.49351000       1.45706000       7.58418000       0.00020600       0.00022400      -0.00051000
V        3.04375000       2.94717000       6.08900000       0.00028400      -0.00040300       0.00019400
V        4.42068000       4.57300000       4.55567000      -0.00001800      -0.00026700      -0.00062100
V        6.10798000       6.09199000       3.05362000       0.00061200      -0.00050400       0.00038800
V        8.91000000       5.97056000       3.06654000       0.00099700       0.00056000      -0.00136000
V        2.96625000      -0.04606000       9.07816000       0.00026800       0.00060800      -0.00049100
V        4.46218000       1.50228000       7.52770000       0.00059200      -0.00069000      -0.00016700
V        6.03085000       3.05167000       6.06550000      -0.00022800       0.00046700       0.00046000
V        8.84404000       5.96429000       5.82786000      -0.00054400      -0.00122600      -0.00031200
V        2.87652000      -0.01471000      12.10240000      -0.00006800       0.00010500      -0.00064500
V        4.37909000       1.57710000      10.52816000       0.00036000      -0.00018000      -0.00007100
V        5.94290000       3.06037000       8.98810000      -0.00015700       0.00052900       0.00002400
V       -0.05836000      12.12355000       0.06060000      -0.00015300      -0.00035300       0.00022200
V       -3.12963000       6.01428000       6.06307000      -0.00006200      -0.00012500      -0.00007200
V        1.52376000      10.59909000       1.50543000       0.00056200       0.00023700       0.00016000
V        4.46151000      10.46414000       1.52747000       0.00020600       0.00024700       0.00008800
V       -1.63933000       4.54615000       7.61506000       0.00015000      -0.00033100      -0.00061300
V       -0.10530000       5.80036000       6.09670000      -0.00050000      -0.00035900      -0.00022700
V        1.65917000       7.59435000       4.47794000      -0.00004400      -0.00010200       0.00013300
V       -1.53552000       1.49532000      10.57717000       0.00026300       0.00000800       0.00049800
V       -0.03350000       2.96356000       9.03882000       0.00002500      -0.00003300      -0.00021300
V        1.50025000       4.55864000       7.59562000      -0.00030500       0.00016700      -0.00086800
V        3.13613000       6.05248000       6.01385000      -0.00032600       0.00019000       0.00035400
V        4.54155000       7.56956000       4.48842000      -0.00047000      -0.00028500      -0.00020800
V       -0.05616000       0.11556000      12.10054000      -0.00040500       0.00061100      -0.00048800
V        1.46761000       1.48400000      10.55987000       0.00040800       0.00014600      -0.00005700
V        2.93721000       3.02833000       9.05847000       0.00005100       0.00044200       0.00000200
V        4.51396000       4.55101000       7.52385000       0.00045400       0.00019400      -0.00028500
V        6.07333000       5.96464000       5.92656000      -0.00093100      -0.00001000       0.00064500
W        8.90938000       3.05132000       5.89463000       0.00080500       0.00232100       0.00119400
Zr      -1.47472000       7.63391000       4.67539000      -0.00053800       0.00017700      -0.00001000
124
Lattice="-7.591332893 7.571263322 7.572119558 7.538506746 -7.580117697 7.52813586 7.578493281 7.567320257 -7.581026814" Properties=species:S:1:pos:R:3:forces:R:3 stress="0.004801393242249962 0.00037782975493534307 4.5999922257759614e-05 0.00037782975493534307 0.004705205345110975 0.00045491239264000127 4.5999922257759614e-05 0.00045491239264000127 0.004473414420703049" free_energy=-1096.99867399 energy=-1096.98216509 pbc="T T T"
Cr       1.44044000       1.46659000      13.60479000       0.00337700      -0.00746000       0.00148400
Cr      -0.03723000       2.96055000       2.99039000       0.00299500       0.00222500       0.00087900
Cr      -1.56568000       4.46789000       4.50278000      -0.00048800      -0.00016000      -0.00152600
Cr       3.01825000       9.08231000       2.99508000      -0.00349400       0.00145500      -0.00255800
Ti      -1.56286000       4.48375000      10.60972000      -0.00668300       0.00254400      -0.00200000
Ti       1.48878000       7.50266000       7.45055000      -0.00639400       0.00108500       0.00412600
Ti       3.04333000       6.02722000      -3.02668000      -0.00725300      -0.00058400      -0.00016600
Ti       7.45784000       1.54945000       1.52750000       0.01178900       0.00908300       0.01639000
Ti      -0.01928000       6.04912000       0.01315000       0.00101900      -0.00553600      -0.00103400
Ti       6.31986000       3.36752000       3.35830000       0.01063500       0.01589700       0.00727500
Ti      10.49255000       4.52484000       1.48631000       0.02679400      -0.05261700      -0.02992400
Ti      -0.03526000       6.00168000       2.87885000      -0.00049300       0.00218900      -0.00575400
Ti      -0.07716000       2.99554000       6.06069000      -0.00216000       0.00045000      -0.00319500
Ti       1.53903000       4.47128000       4.46862000       0.00210100       0.00453700       0.00187900
Ti       2.96626000      12.11825000       0.00558000      -0.00859000       0.00549300      -0.00285100
Ti       0.01895000       9.18706000       2.90603000      -0.00423200      -0.00498000       0.00038900
V       -0.03242000      -0.00197000      15.05675000       0.00528200      -0.00978600      -0.00087700
V        2.92724000       2.96330000      12.08823000       0.00190700       0.00391100       0.00929300
V        4.51875000       4.49349000      10.51090000      -0.00201000      -0.00267200       0.00739300
V        6.02797000       6.05247000       8.98566000      -0.00368400      -0.00235000       0.00753000
V        1.44830000      -1.45131000       1.53521000      -0.00273900       0.00391900      -0.00291900
V        2.95905000       0.03415000      -0.00389000       0.00093000      -0.00197700       0.00011200
V        4.43456000       1.59192000      -1.41605000       0.00706100       0.00491900       0.01449400
V        5.98613000       3.14021000      -3.03428000      -0.00149400      -0.00240400       0.00600400
V        7.55856000       4.56965000      -4.56157000      -0.00203400       0.00093400       0.00596400
V        2.98946000      -3.00211000       3.01802000      -0.00544300       0.00373400      -0.00013900
V        4.48880000      -1.43645000       1.54429000      -0.00376000       0.00417700       0.00022000
V        5.95464000      -0.04656000       0.03092000       0.00264700       0.00651600       0.00659600
V        7.64291000       1.74927000      -1.48648000      -0.00129600       0.00121500       0.00743400
V        9.14573000       3.08992000      -3.06822000      -0.00032500       0.00082400      -0.00425700
V        4.46015000      10.52938000       4.50326000      -0.00053200      -0.00144600      -0.00183900
V       -0.05029000       6.02656000       9.06850000      -0.00409100       0.00310900       0.00291200
V        3.07304000       9.10374000       5.99606000      -0.00072000      -0.00820400      -0.00670000
V        6.01553000       9.05252000       6.02853000       0.00851200      -0.00886800      -0.00302600
V        0.00278000       2.94786000      12.14444000       0.00153600       0.00613200      -0.00081000
V        1.41176000       4.48175000      10.55286000      -0.00632900      -0.00110300       0.00075900
V       10.63391000      -1.54466000       1.52537000      -0.00620100      -0.00022200      -0.00105900
V        4.55941000       7.54950000       7.51786000      -0.00226200      -0.00606000       0.00019600
V       -1.44787000       1.50715000       1.50918000       0.00358200      -0.00348400      -0.00354600
V        7.54818000      -4.60692000       7.49410000       0.00713400      -0.00671400      -0.00122900
V        9.02654000      -3.12084000       6.01431000       0.00329800      -0.00101300       0.00301000
V        4.59481000       7.58350000      -4.59936000      -0.00100200      -0.00528500      -0.00204500
V        7.58023000       7.54285000      -4.57664000       0.00143900      -0.00052600      -0.00122300
V        1.49233000       1.50909000       1.53608000       0.00684400      -0.00144500       0.00127800
V        2.99058000       3.00178000      -0.00695000       0.00826000      -0.00243500       0.00678000
V        4.55133000       4.52861000      -1.47538000      -0.00028100       0.00346700       0.00433400
V        6.04804000       6.05620000      -3.05722000       0.00052700      -0.00178500       0.00072800
V        1.48430000      -1.48390000       4.50952000      -0.00131900       0.00092400       0.00239500
V        3.00662000       0.01773000       3.02049000      -0.00249300       0.00128000       0.00270300
V        4.51802000       1.51471000       1.53161000       0.01016200       0.00572900       0.00839800
V        5.97996000       3.11508000      -0.04309000       0.00343300       0.00357800       0.00972500
V        7.55267000       4.60213000      -1.56659000       0.00434200       0.00223700       0.00087000
V        3.01385000      -2.99478000       6.00794000       0.00352600      -0.00314300      -0.00473900
V        4.47804000      -1.49216000       4.54910000      -0.00487300       0.00011200       0.00026500
V        5.98792000      -0.11136000       3.04523000      -0.00195300       0.00051700       0.00133600
V        9.07516000       3.01123000      -0.10978000      -0.00518600      -0.01141700      -0.01365900
V        4.55614000      -4.58106000       7.50073000       0.01408000      -0.01833800      -0.01273200
V        6.00711000      -3.07407000       5.98300000       0.00520500      -0.00420800      -0.00626900
V        7.60107000      -1.54571000       4.56001000      -0.00256500      -0.00285500      -0.00424200
V        9.11421000      -0.01267000       2.94071000      -0.00282100       0.00199500      -0.00104100
V       10.63088000       1.51386000       1.49058000      -0.00098000      -0.00510000       0.00146800
V       -2.99807000       3.00278000       3.06891000       0.00790700      -0.00519600       0.00414700
V        5.95076000      -3.17414000       9.02751000       0.00542300      -0.00445800       0.00185800
V        1.55328000       7.63779000      -1.48136000      -0.00046700      -0.00242000      -0.00078800
V        3.05258000       9.06578000      -3.05744000      -0.00284100      -0.00415800      -0.00413200
V        6.09074000       9.01765000      -3.12482000      -0.00062400       0.00122900      -0.00309500
V        1.55426000       4.39518000       1.50587000       0.00348600      -0.00301300       0.00451700
V        3.01890000       6.04591000      -0.04482000      -0.00229100      -0.00175500       0.00135500
V        4.58159000       7.60300000      -1.51734000      -0.00312300      -0.00164200      -0.00402000
V        7.55117000       7.56812000      -1.54669000      -0.00339000      -0.00199100      -0.00672700
V        1.51462000       1.50326000       4.47642000      -0.00089500      -0.00100400       0.00127000
V        3.08358000       2.95787000       2.98914000       0.00274700       0.00137200       0.00550200
V        4.54745000       4.57228000       1.51047000       0.00529700       0.00648600       0.01040900
V        6.03121000       6.08056000      -0.01336000      -0.00559300      -0.00005200      -0.00737500
V        9.01498000       6.09721000      -0.09979000       0.00195200       0.00207900       0.03625400
V        2.96909000       0.00346000       6.03484000      -0.00757800      -0.00733300       0.00461500
V        4.52606000       1.51006000       4.54190000      -0.00053200       0.00013400       0.00075600
V        7.54371000       4.56247000       1.37751000       0.00483400       0.01051700      -0.01004200
V        4.50309000      -1.51556000       7.50562000       0.01039300      -0.00832100      -0.00662400
V        5.97250000       0.00995000       6.01593000      -0.00231500      -0.00430900       0.00121500
V        7.53949000       1.33781000       4.50885000      -0.00801600       0.00625400       0.00565500
V        9.07733000       2.97566000       3.05919000       0.00249400       0.03657800       0.02212900
V       -4.49449000       4.55524000       4.55217000      -0.00678100       0.00232200      -0.01016100
V       -3.02925000       5.97625000       3.07461000      -0.03270300       0.00592700      -0.00094000
V        5.80117000       0.04567000       8.98158000      -0.00218700      -0.00817500       0.00342000
V        7.50465000       1.52276000       7.51670000       0.00080400      -0.00673100       0.00202200
V       -3.01640000       3.00520000       6.01200000      -0.00586600       0.00038900      -0.00097600
V        1.66568000       7.64991000       1.47610000       0.00057500      -0.00556300      -0.00055100
V        3.02014000       9.10172000      -0.05726000      -0.00576700       0.00168300      -0.00192400
V        6.01397000       9.01324000       0.02745000      -0.01081900       0.00486500      -0.00291800
V        3.07310000       6.06418000       2.93286000       0.00693900       0.00004700       0.00487400
V        4.53515000       7.56491000       1.48296000      -0.00673100       0.00250800       0.00261600
V        7.54216000       7.51656000       1.51496000      -0.01915700       0.01652400      -0.01156500
V        1.49070000       1.43215000       7.60905000      -0.00882600       0.00079900      -0.00234200
V        3.04476000       2.94466000       6.09341000      -0.00641200      -0.00480800       0.00442200
V        4.40544000       4.56802000       4.54348000       0.00717700      -0.00581200       0.00859400
V        6.04238000       6.08356000       3.02379000       0.02607300       0.00277600       0.00691500
V        8.73623000       5.76471000       3.28149000       0.11231200       0.12868400      -0.13504400
V        2.94349000      -0.07880000       9.10295000       0.00185100       0.00176200      -0.00335400
V        4.45521000       1.49418000       7.53270000      -0.00403300      -0.00494800       0.00408400
V        6.01884000       3.04320000       6.05067000      -0.00714700      -0.00739800       0.01037300
V        8.94622000       6.05361000       5.95352000      -0.02960300      -0.02770400      -0.04340100
V        2.88393000      -0.01950000      12.13972000       0.00001700       0.00590800       0.01093600
V        4.36216000       1.55496000      10.53006000       0.00148700       0.00669800       0.00898400
V        5.94025000       3.06694000       8.97630000      -0.00833600      -0.00806200       0.00902600
V       -0.03907000      12.14964000       0.04671000      -0.01570100      -0.00944400       0.01161700
V       -3.10932000       6.04038000       6.09656000      -0.00240300      -0.00810800      -0.00054000
V        1.51018000      10.61111000       1.48848000      -0.00114100      -0.00123500       0.00496200
V        4.45904000      10.45331000       1.54096000      -0.00772000       0.00245600      -0.00412300
V       -1.62932000       4.53045000       7.63523000      -0.00591900       0.00325500      -0.00406100
V       -0.11456000       5.79623000       6.10292000      -0.00133200      -0.00288500       0.00324700
V        1.66123000       7.60269000       4.46716000      -0.00002600      -0.00252100      -0.00097800
V        6.04131000       9.04085000       3.00023000      -0.00313000       0.00700700       0.00471000
V       -0.02607000       2.93648000       9.05474000      -0.00515000       0.00923800       0.00250400
V        1.50761000       4.54433000       7.60267000      -0.00188700      -0.00245000       0.00125600
V        3.14661000       6.04185000       6.01068000      -0.00519900      -0.00038000       0.00343500
V        4.54128000       7.56231000       4.49641000      -0.00055200      -0.00171400       0.00033500
V       -0.06215000       0.09002000      12.11558000       0.00388900       0.00266700      -0.00447300
V        1.45260000       1.45216000      10.58344000       0.00403100      -0.01202100      -0.00450900
V        2.94167000       2.99942000       9.06254000      -0.00500500       0.00186500       0.00644500
V        4.52643000       4.54482000       7.51059000      -0.00775900      -0.00192100       0.00685100
V        6.12985000       5.94086000       5.88761000      -0.00731900      -0.01057500       0.00932400
W        8.88730000       3.10575000       5.85094000      -0.00257300      -0.00939500       0.01315300
Zr      -1.46239000       7.63477000       4.64787000       0.00292800      -0.00453500       0.00761400
124
Lattice="-7.591332893 7.571263322 7.572119558 7.538506746 -7.580117697 7.52813586 7.578493281 7.567320257 -7.581026814" Properties=species:S:1:pos:R:3:forces:R:3 stress="0.004544848492648783 -6.773285703408512e-05 -0.00033250391566317885 -6.773285703408512e-05 0.004528227353846556 7.537870571329211e-05 -0.00033250391566317885 7.537870571329211e-05 0.004515045286572691" free_energy=-1096.77989601 energy=-1096.76418615 pbc="T T T"
Cr       1.43533000       1.47780000      13.60737000       0.00823400      -0.01743300       0.00953600
Cr      -0.04080000       2.95976000       2.99700000      -0.00300100       0.00543600       0.00454000
Cr      -1.56011000       4.45932000       4.50847000      -0.00379600       0.00519300      -0.00743100
Cr       3.01949000       9.08004000       2.99714000      -0.00328500       0.00228600      -0.00383100
Ti      -1.55880000       4.47509000      10.61621000      -0.00528100      -0.00492200       0.00109800
Ti       1.49928000       7.49693000       7.44118000      -0.00908500       0.00463300       0.00246400
Ti       3.04720000       6.03060000      -3.02545000      -0.00689900      -0.00602200      -0.00524300
Ti       7.44698000       1.52965000       1.49842000       0.00435200       0.00451300       0.02636300
Ti      -0.02138000       6.05248000       0.01443000       0.00277800      -0.00359400      -0.00355600
Ti       6.28292000       3.31873000       3.33899000       0.05481600       0.05137200       0.04389900
Ti      10.43927000       4.62090000       1.54768000       0.05613300      -0.08940300      -0.06659900
Ti      -0.02683000       6.00031000       2.88572000      -0.00451800       0.00187000      -0.01214600
Ti      -0.07161000       2.99276000       6.06650000      -0.00244400       0.00028000      -0.00146700
Ti       1.53976000       4.46896000       4.46945000      -0.00148000       0.00863100       0.00519700
Ti       2.98364000      12.10564000       0.00853000      -0.01295700       0.00981100       0.00397700
Ti       0.02305000       9.19544000       2.90552000       0.00066900       0.00410700      -0.00378100
V       -0.04132000       0.01691000      15.06048000       0.01235900      -0.01079300       0.00789000
V        2.92833000       2.96029000      12.08274000      -0.00302500       0.00391200       0.00596600
V        4.51921000       4.49915000      10.50593000      -0.00297000       0.00024800       0.00450700
V        6.03012000       6.05538000       8.97677000      -0.00531800      -0.00056100       0.00277100
V        1.45015000      -1.45449000       1.53518000       0.00330200       0.01176300      -0.00125100
V        2.96390000       0.04369000      -0.00118000       0.00470800       0.00207400       0.00709800
V        4.42653000       1.58507000      -1.43431000       0.01093200       0.00462800       0.00851800
V        5.98658000       3.14251000      -3.04121000      -0.00163700      -0.00033300       0.00417300
V        7.55561000       4.56854000      -4.57397000      -0.00185400       0.00427000       0.00883200