 vasp.6.4.2 20Jul23 (build Sep 20 2024 16:56:05) complex                         
 executed on              LinuxNV date 2025.04.25  13:15:31
 running    4 mpi-ranks, with    8 threads/rank, on    1 nodes
 distrk:  each k-point on    4 cores,    1 groups
 distr:  one band on NCORE=   1 cores,    4 groups
 OpenACC runtime initialized ...    4 GPUs detected


--------------------------------------------------------------------------------------------------------


 INCAR:
   ENCUT = 520.000000
   POTIM = 0.200000
   SIGMA = 0.200000
   EDIFF = 1.00e-06
   EDIFFG = -1.00e-02
   ALGO = Normal
   GGA = PE
   PREC = Accurate
   IBRION = 2
   ISIF = 2
   ISMEAR = 1
   LORBIT = 11
   NELM = 100
   NSW = -1
   LCHARG = .TRUE.
   LWAVE = .FALSE.
   LREAL = .FALSE.

 POTCAR:    PAW_PBE Cr_pv 02Aug2007               
 POTCAR:    PAW_PBE Ti_pv 07Sep2000               
 POTCAR:    PAW_PBE V_pv 07Sep2000                
 POTCAR:    PAW_PBE W_sv 04Sep2015                
 POTCAR:    PAW_PBE Zr_sv 04Jan2005               
 POTCAR:    PAW_PBE Cr_pv 02Aug2007               
   SHA256 =  c9a7df34d3cdbacf1090e328ef39c0b420964e11c23f63548d1ac9dd218cdba0 Cr_pv/POTCAR          
   COPYR  = (c) Copyright 02Aug2007 Georg Kresse                                                    
   COPYR  = This file is part of the software VASP. Any use, copying, and all other rights are regul
   COPYR  = If you do not have a valid VASP license, you may not use, copy or distribute this file. 
   VRHFIN =Cr : p6d5s1                                                                              
   LEXCH  = PE                                                                                      
   EATOM  =  1647.9177 eV,  121.1185 Ry                                                             
                                                                                                    
   TITEL  = PAW_PBE Cr_pv 02Aug2007                                                                 
   LULTRA =        F    use ultrasoft PP ?                                                          
   IUNSCR =        1    unscreen: 0-lin 1-nonlin 2-no                                               
   RPACOR =    2.080    partial core radius                                                         
   POMASS =   51.996; ZVAL   =   12.000    mass and valenz                                          
   RCORE  =    2.300    outmost cutoff radius                                                       
   RWIGS  =    2.500; RWIGS  =    1.323    wigner-seitz radius (au A)                               
   ENMAX  =  265.681; ENMIN  =  199.261 eV                                                          
   ICORE  =        3    local potential                                                             
   LCOR   =        T    correct aug charges                                                         
   LPAW   =        T    paw PP                                                                      
   EAUG   =  519.424                                                                                
   DEXC   =    0.000                                                                                
   RMAX   =    2.356    core radius for proj-oper                                                   
   RAUG   =    1.300    factor for augmentation sphere                                              
   RDEP   =    2.447    radius for radial grids                                                     
   RDEPT  =    1.882    core radius for aug-charge                                                  
                                                                                                    
   Atomic configuration                                                                             
    8 entries                                                                                       
     n  l   j            E        occ.                                                              
     1  0  0.50     -5880.4963   2.0000                                                             
     2  0  0.50      -667.0865   2.0000                                                             
     2  1  1.50      -560.6250   6.0000                                                             
     3  0  0.50       -73.9860   2.0000                                                             
     3  1  1.50       -45.4378   6.0000                                                             
     3  2  2.50        -2.9137   5.0000                                                             
     4  0  0.50        -4.0071   1.0000                                                             
     4  3  2.50        -1.3606   0.0000                                                             
   Description                                                                                      
     l       E           TYP  RCUT    TYP  RCUT                                                     
     1    -45.4377911     23  2.000                                                                 
     1      1.3605826     23  2.000                                                                 
     2     -2.9136672     23  2.300                                                                 
     2     -4.2742498     23  2.300                                                                 
     0     -4.0071320     23  2.300                                                                 
     0      9.4498803     23  2.300                                                                 
     3      2.7211652     23  2.300                                                                 
  local pseudopotential read in
  partial core-charges read in
  partial kinetic energy density read in
  atomic valenz-charges read in
  non local Contribution for L=            1  read in
    real space projection operators read in
  non local Contribution for L=            1  read in
    real space projection operators read in
  non local Contribution for L=            2  read in
    real space projection operators read in
  non local Contribution for L=            2  read in
    real space projection operators read in
  non local Contribution for L=            0  read in
    real space projection operators read in
  non local Contribution for L=            0  read in
    real space projection operators read in
    PAW grid and wavefunctions read in
 
   number of l-projection  operators is LMAX  =            6
   number of lm-projection operators is LMMAX =           18
 
 POTCAR:    PAW_PBE Ti_pv 07Sep2000               
   SHA256 =  f757a1b2c6d082f4c628fa3d987464a8763bf92e53844ac0500b0e2ddc9ce5c0 Ti_pv/POTCAR          
   COPYR  = (c) Copyright 07Sep2000 Georg Kresse                                                    
   COPYR  = This file is part of the software VASP. Any use, copying, and all other rights are regul
   COPYR  = If you do not have a valid VASP license, you may not use, copy or distribute this file. 
   VRHFIN =Ti: d3 s1                                                                                
   LEXCH  = PE                                                                                      
   EATOM  =  1042.5995 eV,   76.6289 Ry                                                             
                                                                                                    
   TITEL  = PAW_PBE Ti_pv 07Sep2000                                                                 
   LULTRA =        F    use ultrasoft PP ?                                                          
   IUNSCR =        1    unscreen: 0-lin 1-nonlin 2-no                                               
   RPACOR =    2.200    partial core radius                                                         
   POMASS =   47.880; ZVAL   =   10.000    mass and valenz                                          
   RCORE  =    2.500    outmost cutoff radius                                                       
   RWIGS  =    2.500; RWIGS  =    1.323    wigner-seitz radius (au A)                               
   ENMAX  =  222.335; ENMIN  =  166.751 eV                                                          
   RCLOC  =    1.701    cutoff for local pot                                                        
   LCOR   =        T    correct aug charges                                                         
   LPAW   =        T    paw PP                                                                      
   EAUG   =  482.848                                                                                
   DEXC   =    0.000                                                                                
   RMAX   =    2.564    core radius for proj-oper                                                   
   RAUG   =    1.300    factor for augmentation sphere                                              
   RDEP   =    2.538    radius for radial grids                                                     
   RDEPT  =    1.952    core radius for aug-charge                                                  
                                                                                                    
   Atomic configuration                                                                             
    8 entries                                                                                       
     n  l   j            E        occ.                                                              
     1  0  0.50     -4865.3608   2.0000                                                             
     2  0  0.50      -533.1368   2.0000                                                             
     2  1  1.50      -440.5031   6.0000                                                             
     3  0  0.50       -59.3186   2.0000                                                             
     3  1  1.50       -35.7012   6.0000                                                             
     3  2  2.50        -1.9157   3.0000                                                             
     4  0  0.50        -3.7291   1.0000                                                             
     4  3  2.50        -1.3606   0.0000                                                             
   Description                                                                                      
     l       E           TYP  RCUT    TYP  RCUT                                                     
     1    -35.7012140     23  2.300                                                                 
     1     -1.3605826     23  2.300                                                                 
     2     -1.9156996     23  2.500                                                                 
     2     -0.4063033     23  2.500                                                                 
     0     -3.7290856     23  2.500                                                                 
     0     20.4087390     23  2.500                                                                 
  local pseudopotential read in
  partial core-charges read in
  partial kinetic energy density read in
  atomic valenz-charges read in
  non local Contribution for L=            1  read in
    real space projection operators read in
  non local Contribution for L=            1  read in
    real space projection operators read in
  non local Contribution for L=            2  read in
    real space projection operators read in
  non local Contribution for L=            2  read in
    real space projection operators read in
  non local Contribution for L=            0  read in
    real space projection operators read in
  non local Contribution for L=            0  read in
    real space projection operators read in
    PAW grid and wavefunctions read in
 
   number of l-projection  operators is LMAX  =            6
   number of lm-projection operators is LMMAX =           18
 
 POTCAR:    PAW_PBE V_pv 07Sep2000                
   SHA256 =  1175d3c8cb4ffd1d150a520fa74fae5c3ec72c0849b5615a94a5372dd2cf07f7 V_pv/POTCAR           
   COPYR  = (c) Copyright 07Sep2000 Georg Kresse                                                    
   COPYR  = This file is part of the software VASP. Any use, copying, and all other rights are regul
   COPYR  = If you do not have a valid VASP license, you may not use, copy or distribute this file. 
   VRHFIN =V: p6 d4 s1                                                                              
   LEXCH  = PE                                                                                      
   EATOM  =  1321.6206 eV,   97.1364 Ry                                                             
                                                                                                    
   TITEL  = PAW_PBE V_pv 07Sep2000                                                                  
   LULTRA =        F    use ultrasoft PP ?                                                          
   IUNSCR =        1    unscreen: 0-lin 1-nonlin 2-no                                               
   RPACOR =    1.700    partial core radius                                                         
   POMASS =   50.941; ZVAL   =   11.000    mass and valenz                                          
   RCORE  =    2.300    outmost cutoff radius                                                       
   RWIGS  =    2.300; RWIGS  =    1.217    wigner-seitz radius (au A)                               
   ENMAX  =  263.673; ENMIN  =  197.755 eV                                                          
   RCLOC  =    1.779    cutoff for local pot                                                        
   LCOR   =        T    correct aug charges                                                         
   LPAW   =        T    paw PP                                                                      
   EAUG   =  598.473                                                                                
   DEXC   =    0.000                                                                                
   RMAX   =    2.359    core radius for proj-oper                                                   
   RAUG   =    1.300    factor for augmentation sphere                                              
   RDEP   =    2.430    radius for radial grids                                                     
   RDEPT  =    1.700    core radius for aug-charge                                                  
                                                                                                    
   Atomic configuration                                                                             
    8 entries                                                                                       
     n  l   j            E        occ.                                                              
     1  0  0.50     -5360.7193   2.0000                                                             
     2  0  0.50      -598.4546   2.0000                                                             
     2  1  1.50      -499.0155   6.0000                                                             
     3  0  0.50       -66.5711   2.0000                                                             
     3  1  1.50       -40.5282   6.0000                                                             
     3  2  2.50        -2.4291   4.0000                                                             
     4  0  0.50        -3.8743   1.0000                                                             
     4  3  2.50        -1.3606   0.0000                                                             
   Description                                                                                      
     l       E           TYP  RCUT    TYP  RCUT                                                     
     1    -40.5282431     23  2.000                                                                 
     1      5.4423304     23  2.000                                                                 
     2     -2.4290905     23  2.300                                                                 
     2     -1.0472488     23  2.300                                                                 
     0     -3.8742754     23  2.300                                                                 
     0     27.2116520     23  2.300                                                                 
  local pseudopotential read in
  partial core-charges read in
  partial kinetic energy density read in
  atomic valenz-charges read in
  non local Contribution for L=            1  read in
    real space projection operators read in
  non local Contribution for L=            1  read in
    real space projection operators read in
  non local Contribution for L=            2  read in
    real space projection operators read in
  non local Contribution for L=            2  read in
    real space projection operators read in
  non local Contribution for L=            0  read in
    real space projection operators read in
  non local Contribution for L=            0  read in
    real space projection operators read in
    PAW grid and wavefunctions read in
 
   number of l-projection  operators is LMAX  =            6
   number of lm-projection operators is LMMAX =           18
 
 POTCAR:    PAW_PBE W_sv 04Sep2015                
   SHA256 =  931c2d770f65867ef30f3db3421922900fc0890ebac5c3e12f63b6a2064023d7 W_sv/POTCAR           
   COPYR  = (c) Copyright 04Sep2015 Georg Kresse                                                    
   COPYR  = This file is part of the software VASP. Any use, copying, and all other rights are regul
   COPYR  = If you do not have a valid VASP license, you may not use, copy or distribute this file. 
   VRHFIN =W : 5p6s5d                                                                               
   LEXCH  = PE                                                                                      
   EATOM  =  1865.5791 eV,  137.1162 Ry                                                             
                                                                                                    
   TITEL  = PAW_PBE W_sv 04Sep2015                                                                  
   LULTRA =        F    use ultrasoft PP ?                                                          
   IUNSCR =        1    unscreen: 0-lin 1-nonlin 2-no                                               
   RPACOR =    2.330    partial core radius                                                         
   POMASS =  183.850; ZVAL   =   14.000    mass and valenz                                          
   RCORE  =    2.500    outmost cutoff radius                                                       
   RWIGS  =    2.750; RWIGS  =    1.455    wigner-seitz radius (au A)                               
   ENMAX  =  223.057; ENMIN  =  167.293 eV                                                          
   ICORE  =        3    local potential                                                             
   LCOR   =        T    correct aug charges                                                         
   LPAW   =        T    paw PP                                                                      
   EAUG   =  373.438                                                                                
   DEXC   =    0.000                                                                                
   RMAX   =    2.565    core radius for proj-oper                                                   
   RAUG   =    1.300    factor for augmentation sphere                                              
   RDEP   =    2.539    radius for radial grids                                                     
   RDEPT  =    2.126    core radius for aug-charge                                                  
                                                                                                    
   Atomic configuration                                                                             
   15 entries                                                                                       
     n  l   j            E        occ.                                                              
     1  0  0.50    -69465.5834   2.0000                                                             
     2  0  0.50    -11986.2640   2.0000                                                             
     2  1  1.50    -10479.8613   6.0000                                                             
     3  0  0.50     -2759.0756   2.0000                                                             
     3  1  1.50     -2313.1855   6.0000                                                             
     3  2  2.50     -1801.1183  10.0000                                                             
     4  0  0.50      -567.6789   2.0000                                                             
     4  1  1.50      -421.4692   6.0000                                                             
     4  2  2.50      -236.3471  10.0000                                                             
     4  3  3.50       -31.2665  14.0000                                                             
     5  0  0.50       -77.1084   2.0000                                                             
     6  0  0.50        -5.1438   1.0000                                                             
     5  1  1.50       -41.3856   6.0000                                                             
     5  2  2.50        -3.3185   5.0000                                                             
     5  3  2.50        -1.3606   0.0000                                                             
   Description                                                                                      
     l       E           TYP  RCUT    TYP  RCUT                                                     
     0    -77.1084470     23  2.100                                                                 
     0     -5.1437956     23  2.300                                                                 
     1    -41.3855615     23  2.500                                                                 
     1     -2.7211652     23  2.500                                                                 
     2     -3.3185025     23  2.500                                                                 
     2     -1.5965151     23  2.500                                                                 
     3     -1.3605826     23  2.500                                                                 
  local pseudopotential read in
  partial core-charges read in
  partial kinetic energy density read in
  kinetic energy density of atom read in
  atomic valenz-charges read in
  non local Contribution for L=            0  read in
    real space projection operators read in
  non local Contribution for L=            0  read in
    real space projection operators read in
  non local Contribution for L=            1  read in
    real space projection operators read in
  non local Contribution for L=            1  read in
    real space projection operators read in
  non local Contribution for L=            2  read in
    real space projection operators read in
  non local Contribution for L=            2  read in
    real space projection operators read in
    PAW grid and wavefunctions read in
 
   number of l-projection  operators is LMAX  =            6
   number of lm-projection operators is LMMAX =           18
 
 POTCAR:    PAW_PBE Zr_sv 04Jan2005               
   SHA256 =  25aed69cb10325f9d37c5c68912b61a17387d1f8e4f1d804860ffa10c8a4bf76 Zr_sv/POTCAR          
   COPYR  = (c) Copyright 04Jan2005 Georg Kresse                                                    
   COPYR  = This file is part of the software VASP. Any use, copying, and all other rights are regul
   COPYR  = If you do not have a valid VASP license, you may not use, copy or distribute this file. 
   VRHFIN =Zr: 4s4p5s4d                                                                             
   LEXCH  = PE                                                                                      
   EATOM  =  1284.2219 eV,   94.3876 Ry                                                             
                                                                                                    
   TITEL  = PAW_PBE Zr_sv 04Jan2005                                                                 
   LULTRA =        F    use ultrasoft PP ?                                                          
   IUNSCR =        1    unscreen: 0-lin 1-nonlin 2-no                                               
   RPACOR =    2.200    partial core radius                                                         
   POMASS =   91.224; ZVAL   =   12.000    mass and valenz                                          
   RCORE  =    2.500    outmost cutoff radius                                                       
   RWIGS  =    3.070; RWIGS  =    1.625    wigner-seitz radius (au A)                               
   ENMAX  =  229.898; ENMIN  =  172.424 eV                                                          
   ICORE  =        3    local potential                                                             
   LCOR   =        T    correct aug charges                                                         
   LPAW   =        T    paw PP                                                                      
   EAUG   =  461.257                                                                                
   DEXC   =    0.000                                                                                
   RMAX   =    2.561    core radius for proj-oper                                                   
   RAUG   =    1.300    factor for augmentation sphere                                              
   RDEP   =    2.597    radius for radial grids                                                     
   RDEPT  =    2.007    core radius for aug-charge                                                  
                                                                                                    
   Atomic configuration                                                                             
   11 entries                                                                                       
     n  l   j            E        occ.                                                              
     1  0  0.50    -17820.0161   2.0000                                                             
     2  0  0.50     -2467.0882   2.0000                                                             
     2  1  1.50     -2199.6095   6.0000                                                             
     3  0  0.50      -402.4863   2.0000                                                             
     3  1  1.50      -315.3675   6.0000                                                             
     3  2  2.50      -172.4472  10.0000                                                             
     4  0  0.50       -52.4146   2.0000                                                             
     5  0  0.50        -3.8421   1.0000                                                             
     4  1  1.50       -30.5054   6.0000                                                             
     4  2  2.50        -2.3341   3.0000                                                             
     4  3  2.50        -1.3606   0.0000                                                             
   Description                                                                                      
     l       E           TYP  RCUT    TYP  RCUT                                                     
     0    -52.4145962     23  2.200                                                                 
     0     -3.8421270     23  2.500                                                                 
     1    -30.5053914     23  2.200                                                                 
     1     20.4087390     23  2.200                                                                 
     2     -2.3340816     23  2.500                                                                 
     2     -0.6120942     23  2.500                                                                 
     3     -4.0817478     23  2.500                                                                 
  local pseudopotential read in
  partial core-charges read in
  partial kinetic energy density read in
  atomic valenz-charges read in
  non local Contribution for L=            0  read in
    real space projection operators read in
  non local Contribution for L=            0  read in
    real space projection operators read in
  non local Contribution for L=            1  read in
    real space projection operators read in
  non local Contribution for L=            1  read in
    real space projection operators read in
  non local Contribution for L=            2  read in
    real space projection operators read in
  non local Contribution for L=            2  read in
    real space projection operators read in
    PAW grid and wavefunctions read in
 
   number of l-projection  operators is LMAX  =            6
   number of lm-projection operators is LMMAX =           18
 
 -----------------------------------------------------------------------------
|                                                                             |
|               ----> ADVICE to this user running VASP <----                  |
|                                                                             |
|     You have a (more or less) 'large supercell' and for larger cells it     |
|     might be more efficient to use real-space projection operators.         |
|     Therefore, try LREAL= Auto in the INCAR file.                           |
|     Mind: For very accurate calculation, you might also keep the            |
|     reciprocal projection scheme (i.e. LREAL=.FALSE.).                      |
|                                                                             |
 -----------------------------------------------------------------------------

  PAW_PBE Cr_pv 02Aug2007               :
 energy of atom  1       EATOM=-1647.9177
 kinetic energy error for atom=    0.0057 (will be added to EATOM!!)
  PAW_PBE Ti_pv 07Sep2000               :
 energy of atom  2       EATOM=-1042.5995
 kinetic energy error for atom=    0.0019 (will be added to EATOM!!)
  PAW_PBE V_pv 07Sep2000                :
 energy of atom  3       EATOM=-1321.6206
 kinetic energy error for atom=    0.0054 (will be added to EATOM!!)
  PAW_PBE W_sv 04Sep2015                :
 energy of atom  4       EATOM=-1865.5791
 kinetic energy error for atom=    0.0026 (will be added to EATOM!!)
  PAW_PBE Zr_sv 04Jan2005               :
 energy of atom  5       EATOM=-1284.2219
 kinetic energy error for atom=    0.0043 (will be added to EATOM!!)
 
 
 POSCAR: Cr Ti V  W  Zr
  positions in cartesian coordinates
  No initial velocities read in
 exchange correlation table for  LEXCH =        8
   RHO(1)=    0.500       N(1)  =     2000
   RHO(2)=  100.500       N(2)  =     4000
 


--------------------------------------------------------------------------------------------------------


 ion  position               nearest neighbor table
   1  0.002  0.404  0.004-  21 2.51  17 2.55  25 2.55  49 2.55  24 2.57 107 2.60  44 2.60  10 2.62
                            48 2.91  45 2.97  26 3.00 111 3.04
   2  0.402  0.005  0.800-   3 2.51  81 2.54  75 2.55  80 2.55  59 2.57  39 2.57  54 2.59  56 2.63
                            84 2.93  55 2.96  38 2.97  60 2.98  76 3.01  74 3.05
   3  0.402  0.197  0.802-  63 2.49   2 2.51  84 2.51  85 2.55  60 2.57  43 2.58  38 2.59  66 2.59
                            81 2.94  39 2.96  42 2.98  59 2.99  88 3.02  64 3.05
   4  0.398  0.604  0.598-  51 2.51  98 2.51  46 2.52  92 2.54  74 2.57  70 2.58  69 2.59   9 2.76
                            50 3.02  97 3.02  93 3.04 119 3.09 118 3.11
   5  0.598  0.396  0.397- 114 2.54  61 2.54  87 2.55  86 2.58 120 2.59 119 2.61  91 2.66 109 2.66
                            82 3.02 110 3.03  65 3.04  92 3.04 121 3.04
   6  0.802  0.001  0.198-  13 2.53  99 2.54  77 2.54  94 2.60 122 2.64 104 2.64 100 2.64 105 2.88
                           115 2.96   7 2.99  76 3.04
   7  0.993  0.205  0.198- 104 2.56  18 2.59  21 2.61  99 2.63  17 2.67  41 2.68  46 2.72  13 2.75
                            22 2.90 103 2.92  12 2.97   6 2.99  45 3.01
   8  0.201  0.805  0.005-  30 2.63  57 2.64  52 2.65  35 2.66  71 2.76  55 2.76  48 2.76  29 2.78
                            34 2.93  36 2.96  72 3.03 123 3.04
   9  0.385  0.386  0.589- 118 2.61 119 2.67  63 2.69  87 2.70  66 2.71  93 2.74   4 2.76  62 2.91
                            42 2.95  46 2.98  70 3.02
  10  0.802  0.204  0.802- 111 2.55 102 2.56   1 2.62 103 2.66  20 2.66  79 2.69  84 2.70 106 2.70
                            24 2.93  17 2.94 107 2.97  83 3.01 101 3.04
  11  0.789  0.586  0.797- 111 2.53  29 2.60 112 2.64  87 2.64  93 2.66 114 2.75 124 2.76  30 2.80
                            88 2.88 110 3.03
  12  0.010  0.015  0.012-  41 2.48  13 2.57  35 2.59  17 2.62  16 2.69  99 2.70  30 2.72 124 2.75
                             7 2.97
  13  0.993  0.994  0.196-  18 2.48   6 2.53 115 2.55  12 2.57  31 2.62  36 2.64  14 2.70   7 2.75
                            30 2.90 122 2.97
  14  0.999  0.996  0.404-  18 2.52  15 2.55 100 2.55  37 2.56  32 2.57 122 2.62  42 2.64  13 2.70

  15  0.003  0.002  0.603-  14 2.55  16 2.57  19 2.59  33 2.60  43 2.60  38 2.62 101 2.62 116 2.64

  16  0.004  0.004  0.801-  20 2.55  15 2.57  40 2.59  39 2.63 117 2.67 102 2.69  12 2.69  34 2.71
                           124 3.02
  17  0.999  0.205  0.996-   1 2.55  20 2.57  45 2.59 102 2.59  12 2.62  40 2.64 103 2.64   7 2.67
                            10 2.94
  18  0.098  0.193  0.396-  13 2.48  14 2.52 118 2.57   7 2.59  42 2.60  46 2.72
  19  0.001  0.196  0.596- 106 2.55  42 2.58 100 2.59  15 2.59  47 2.63  20 2.63  23 2.66 118 2.96

  20  0.003  0.198  0.799-  16 2.55  17 2.57  24 2.58 101 2.60  43 2.61  44 2.61  19 2.63  10 2.66
                            47 2.90
  21  0.001  0.407  0.197-   1 2.51  26 2.54 108 2.60  45 2.60  50 2.60   7 2.61 103 2.64  22 2.65

  22  0.001  0.399  0.396- 109 2.59  46 2.59  27 2.63  51 2.64  21 2.65  23 2.66 104 2.69 105 2.88
                             7 2.90 118 2.98
  23  0.996  0.399  0.598- 110 2.53 105 2.54 118 2.57  28 2.61  22 2.66  19 2.66  24 2.68 123 2.74
                           106 2.92
  24  1.000  0.396  0.804-   1 2.57  20 2.58 111 2.60 106 2.62  29 2.66  47 2.67  23 2.68  48 2.69
                            10 2.93 123 3.12
  25  1.000  0.597  0.001-   1 2.55  26 2.59  48 2.62 111 2.63 112 2.64  29 2.66  30 2.66  52 2.68

  26  0.998  0.601  0.200-  21 2.54  31 2.57  27 2.58  25 2.59 113 2.59 107 2.61  49 2.63  53 2.66
                             1 3.00
  27  0.002  0.601  0.399-  50 2.57  26 2.58  32 2.60  28 2.60  22 2.63 121 2.63 108 2.65  54 2.65

  28  0.001  0.599  0.597-  27 2.60 109 2.61  23 2.61  33 2.63 114 2.64  29 2.65  51 2.66  55 2.66
                           121 3.01 123 3.11
  29  0.988  0.591  0.792- 110 2.52  11 2.60  34 2.61  28 2.65  24 2.66  25 2.66 123 2.75   8 2.78

  30  0.001  0.804  0.010-  36 2.52  31 2.56 115 2.62   8 2.63  25 2.66  12 2.72  34 2.78  11 2.80
                            13 2.90 124 3.08
  31  0.001  0.800  0.205-  30 2.56  32 2.56  26 2.57  52 2.57  13 2.62 122 2.63  37 2.65 112 2.67

  32  0.005  0.801  0.402-  53 2.55  31 2.56  14 2.57  27 2.60  33 2.60  38 2.61 116 2.66 113 2.69
                           121 3.05 122 3.06
  33  0.002  0.802  0.601-  34 2.58  15 2.60  32 2.60  54 2.61 117 2.62  28 2.63  39 2.63 121 2.65
                            55 2.91
  34  0.014  0.801  0.801-  55 2.43  33 2.58  29 2.61  35 2.63  16 2.71 124 2.74  30 2.78 114 2.79
                             8 2.93
  35  0.204  0.009  0.005-  40 2.54  61 2.57  12 2.59  36 2.61  34 2.63  56 2.64  39 2.64   8 2.66

  36  0.197  0.998  0.199-  30 2.52  62 2.56  52 2.59  41 2.60  35 2.61  37 2.63  13 2.64  57 2.65
                             8 2.96
  37  0.199  0.010  0.404-  14 2.56  38 2.60  63 2.62  36 2.63  31 2.65  58 2.67  53 2.69  62 2.87
                            42 2.91
  38  0.203  0.002  0.602-  42 2.53  54 2.56  59 2.58   3 2.59  39 2.60  37 2.60  32 2.61  15 2.62
                            63 2.90   2 2.97
  39  0.205  0.002  0.801-  55 2.48  43 2.56   2 2.57  60 2.59  38 2.60  33 2.63  16 2.63  35 2.64
                             3 2.96
  40  0.201  0.201  0.001-  35 2.54  65 2.57  16 2.59  44 2.59  43 2.59  60 2.64  17 2.64  41 2.71

  41  0.199  0.200  0.207-  12 2.48 119 2.57  36 2.60  45 2.65   7 2.68  61 2.69  40 2.71
  42  0.202  0.197  0.607-  38 2.53  43 2.55  19 2.58  66 2.59  18 2.60  63 2.62  14 2.64 118 2.72
                            37 2.91   9 2.95   3 2.98
  43  0.205  0.198  0.803-  47 2.51  42 2.55  39 2.56   3 2.58  40 2.59  15 2.60  64 2.61  20 2.61

  44  0.199  0.399  0.002-  48 2.53  45 2.56  47 2.57  40 2.59   1 2.60  20 2.61  68 2.63  64 2.63

  45  0.197  0.399  0.198-  44 2.56  46 2.58  17 2.59  21 2.60  49 2.62  65 2.63  41 2.65  69 2.66
                             1 2.97 119 3.00   7 3.01
  46  0.205  0.413  0.402-   4 2.52  50 2.56  45 2.58  22 2.59 119 2.63 118 2.69  18 2.72   7 2.72
                            51 2.89   9 2.98
  47  0.202  0.390  0.804-  43 2.51  44 2.57  66 2.57  19 2.63  24 2.67  67 2.68 118 2.69 123 2.78
                            20 2.90
  48  0.205  0.598  0.016-  49 2.42  44 2.53  72 2.59  25 2.62  67 2.64  24 2.69 123 2.76   8 2.76
                            68 2.87   1 2.91
  49  0.198  0.600  0.199-  48 2.42   1 2.55  50 2.56  45 2.62  26 2.63  52 2.63  68 2.63  73 2.64

  50  0.200  0.605  0.397-  51 2.53  46 2.56  49 2.56  27 2.57  53 2.59  69 2.60  21 2.60  74 2.61
                             4 3.02
  51  0.205  0.605  0.592-   4 2.51  50 2.53  54 2.59  22 2.64  28 2.66  75 2.66 118 2.69 123 2.81
                            46 2.89  74 2.92
  52  0.201  0.805  0.208-  53 2.54  31 2.57  58 2.58  36 2.59  49 2.63   8 2.65  72 2.66  25 2.68

  53  0.201  0.805  0.402-  52 2.54  32 2.55  59 2.58  54 2.58  50 2.59  73 2.61  26 2.66  37 2.69

  54  0.204  0.806  0.601-  55 2.54  38 2.56  53 2.58  51 2.59   2 2.59  74 2.60  33 2.61  27 2.65

  55  0.201  0.810  0.796-  34 2.43  39 2.48  54 2.54  75 2.61  56 2.62  28 2.66   8 2.76 123 2.76
                            33 2.91   2 2.96
  56  0.402  0.004  0.001-  82 2.58  60 2.58  76 2.60  71 2.61  55 2.62   2 2.63  35 2.64  57 2.66

  57  0.405  0.006  0.206- 120 2.55  61 2.58  58 2.61  72 2.63   8 2.64  36 2.65  56 2.66  77 2.70

  58  0.400  0.003  0.403-  62 2.55  83 2.57  52 2.58  73 2.59  59 2.61  57 2.61  37 2.67  78 2.69
                           120 3.06
  59  0.400  1.000  0.602-  63 2.50   2 2.57  74 2.58  38 2.58  53 2.58  84 2.59  79 2.60  58 2.61
                             3 2.99
  60  0.402  0.201  1.000-  81 2.56   3 2.57  86 2.57  56 2.58  64 2.59  39 2.59  61 2.64  40 2.64
                             2 2.98
  61  0.403  0.201  0.202-   5 2.54  35 2.57  57 2.58  65 2.62  82 2.63  60 2.64  62 2.68  41 2.69
                           119 2.98 120 3.01
  62  0.390  0.194  0.400-  87 2.54  58 2.55  36 2.56  61 2.68 119 2.69  63 2.71 120 2.76  37 2.87
                             9 2.91
  63  0.404  0.196  0.612-   3 2.49  59 2.50  88 2.53  42 2.62  83 2.62  37 2.62   9 2.69  62 2.71
                            84 2.82  38 2.90
  64  0.402  0.400  0.004-  90 2.55  65 2.55  60 2.59  66 2.59  67 2.59  85 2.60  43 2.61  44 2.63
                             3 3.05
  65  0.398  0.398  0.197-  64 2.55 119 2.57  40 2.57  86 2.60  61 2.62  68 2.62  91 2.63  45 2.63
                             5 3.04
  66  0.400  0.395  0.804-  47 2.57  89 2.57  42 2.59  64 2.59  88 2.59   3 2.59  70 2.68   9 2.71
                           118 3.13
  67  0.404  0.600  0.006-  89 2.55  68 2.57  95 2.57  64 2.59  48 2.64  47 2.68  71 2.73  70 2.76
                            90 2.91 123 3.02
  68  0.401  0.601  0.202-  67 2.57  90 2.57  69 2.58  96 2.60  65 2.62  44 2.63  49 2.63  72 2.65
                            48 2.87
  69  0.400  0.604  0.401-  68 2.58  97 2.58   4 2.59  50 2.60  73 2.61  91 2.63 119 2.65  45 2.66

  70  0.409  0.601  0.797-  93 2.37   4 2.58  94 2.60  66 2.68 118 2.69 123 2.70  67 2.76  75 2.76
                            98 2.88   9 3.02
  71  0.420  0.817  0.017-  77 2.43  94 2.51  72 2.58  56 2.61  67 2.73  75 2.73 123 2.75   8 2.76
                            95 2.88  76 2.89
  72  0.403  0.804  0.204-  73 2.57  71 2.58  78 2.58  48 2.59  95 2.59  57 2.63  68 2.65  52 2.66
                             8 3.03
  73  0.400  0.804  0.399-  79 2.56  72 2.57  58 2.59  74 2.60  96 2.60  69 2.61  53 2.61  49 2.64

  74  0.401  0.802  0.598-   4 2.57  59 2.58  97 2.58  80 2.59  54 2.60  73 2.60  75 2.60  50 2.61
                            98 2.90  51 2.92   2 3.05
  75  0.402  0.810  0.800-  98 2.51  76 2.54   2 2.55  74 2.60  55 2.61  51 2.66  71 2.73  70 2.76
                            80 2.91 123 3.07
  76  0.598  1.000  0.997-  75 2.54 104 2.54  99 2.55  80 2.59  81 2.59  56 2.60  94 2.61  77 2.62
                            71 2.89   2 3.01   6 3.04
  77  0.609  0.002  0.202-  71 2.43   6 2.54  95 2.60 105 2.62  76 2.62  78 2.63  82 2.63  57 2.70
                           120 3.02
  78  0.604  1.000  0.400-  96 2.58  72 2.58  79 2.60 106 2.60 100 2.60  77 2.63 120 2.63  58 2.69

  79  0.597  0.998  0.596-  73 2.56  97 2.56  83 2.58  78 2.60  59 2.60  80 2.64 101 2.64  10 2.69

  80  0.595  0.001  0.798-   2 2.55  74 2.59  76 2.59  98 2.59  84 2.61 102 2.62 103 2.63  79 2.64
                            75 2.91
  81  0.596  0.197  0.997-   2 2.54  60 2.56  85 2.58  84 2.58  82 2.58  76 2.59 103 2.59 108 2.62
                             3 2.94
  82  0.602  0.199  0.197- 104 2.51  56 2.58  81 2.58  86 2.59 109 2.61 120 2.62  61 2.63  77 2.63
                             5 3.02
  83  0.600  0.197  0.599-  58 2.57  79 2.58  87 2.59 111 2.60  63 2.62 120 2.64  84 2.64 106 2.71
                            10 3.01
  84  0.595  0.201  0.800-   3 2.51  88 2.57  81 2.58  59 2.59  80 2.61 107 2.62  83 2.64  10 2.70
                            63 2.82   2 2.93
  85  0.596  0.394  0.997-   3 2.55  81 2.58  64 2.60  89 2.61 113 2.62  88 2.62  86 2.63 107 2.64

  86  0.598  0.396  0.200-  60 2.57   5 2.58  82 2.59  65 2.60 121 2.62  85 2.63  90 2.64 108 2.64

  87  0.591  0.387  0.587-  62 2.54   5 2.55  83 2.59  11 2.64 110 2.66  92 2.68  88 2.69   9 2.70
                           120 2.93 119 3.00
  88  0.597  0.397  0.798-  63 2.53  84 2.57  66 2.59 112 2.62  85 2.62  93 2.63 111 2.64  87 2.69
                            11 2.88   3 3.02
  89  0.596  0.594  1.000-  67 2.55  66 2.57  90 2.59  93 2.59  85 2.61 112 2.62 122 2.64  94 2.69

  90  0.595  0.597  0.198-  64 2.55  68 2.57  89 2.59  91 2.59  95 2.63  86 2.64 113 2.65 116 2.66
                            67 2.91 121 3.04 122 3.05
  91  0.598  0.600  0.399-  90 2.59 117 2.61  92 2.62  96 2.62  69 2.63  65 2.63 121 2.64   5 2.66
                           119 2.98
  92  0.587  0.592  0.592- 119 2.52   4 2.54  91 2.62  87 2.68  93 2.69  97 2.69 114 2.73 124 2.76
                             5 3.04
  93  0.591  0.597  0.801-  70 2.37  89 2.59  88 2.63 115 2.65  11 2.66  98 2.69  92 2.69   9 2.74
                             4 3.04 124 3.17
  94  0.601  0.802  0.000-  71 2.51 115 2.56  70 2.60   6 2.60  76 2.61  98 2.65  95 2.65  89 2.69
                           122 3.02
  95  0.599  0.800  0.202-  67 2.57  72 2.59  96 2.59  77 2.60 100 2.61 122 2.62  90 2.63  94 2.65
                            71 2.88
  96  0.599  0.801  0.401-  97 2.56  78 2.58  95 2.59  68 2.60  73 2.60  91 2.62 116 2.63 101 2.63

  97  0.598  0.803  0.597-  96 2.56  79 2.56  74 2.58  69 2.58  98 2.63 102 2.64 117 2.65  92 2.69
                             4 3.02 124 3.08
  98  0.587  0.798  0.792-  75 2.51   4 2.51  80 2.59  97 2.63  94 2.65  99 2.68  93 2.69 124 2.78
                            70 2.88  74 2.90
  99  0.794  0.998  0.000-   6 2.54  76 2.55 103 2.62   7 2.63 115 2.65  98 2.68 102 2.68  12 2.70
                           124 3.07
 100  0.802  0.998  0.399-  14 2.55 116 2.58  19 2.59 105 2.60  78 2.60 101 2.61  95 2.61   6 2.64
                           122 2.98
 101  0.802  0.003  0.600- 117 2.55 106 2.57  20 2.60 100 2.61  15 2.62 102 2.62  96 2.63  79 2.64
                            10 3.04
 102  0.799  0.007  0.800-  10 2.56  17 2.59 101 2.62  80 2.62  97 2.64  99 2.68 124 2.69  16 2.69

 103  0.797  0.199  0.002- 104 2.52  81 2.59 107 2.60  99 2.62  80 2.63  17 2.64  21 2.64  10 2.66
                             7 2.92
 104  0.791  0.196  0.191-  82 2.51 103 2.52  76 2.54 105 2.56   7 2.56 108 2.57   6 2.64  22 2.69

 105  0.817  0.200  0.395-  23 2.54 104 2.56 100 2.60  77 2.62 109 2.65 106 2.66 120 2.81   6 2.88
                            22 2.88
 106  0.807  0.199  0.595-  19 2.55 101 2.57  78 2.60 110 2.61  24 2.62 105 2.66  10 2.70  83 2.71
                            23 2.92 120 3.02
 107  0.800  0.398  1.000- 112 2.55 108 2.59 103 2.60   1 2.60  26 2.61 111 2.62  84 2.62  85 2.64
                            10 2.97
 108  0.799  0.397  0.197- 104 2.57 113 2.58 107 2.59  21 2.60 109 2.60  81 2.62  86 2.64  27 2.65
                           121 3.03
 109  0.803  0.398  0.397-  22 2.59 108 2.60  82 2.61  28 2.61 110 2.62 121 2.63 105 2.65   5 2.66
                           120 3.01
 110  0.801  0.397  0.597-  29 2.52  23 2.53 120 2.58 114 2.61 106 2.61 109 2.62 111 2.64  87 2.66
                             5 3.03  11 3.03
 111  0.799  0.396  0.798-  11 2.53  10 2.55  83 2.60  24 2.60 107 2.62  25 2.63  88 2.64 110 2.64
                             1 3.04
 112  0.797  0.593  0.004- 113 2.53 107 2.55  88 2.62  89 2.62  11 2.64  25 2.64  31 2.67 115 2.67
                           122 3.02
 113  0.797  0.594  0.198- 112 2.53 108 2.58 121 2.58  26 2.59  85 2.62  90 2.65 122 2.66  32 2.69

 114  0.794  0.591  0.590-   5 2.54 121 2.57 110 2.61  28 2.64  92 2.73  11 2.75 117 2.75  34 2.79
                           124 3.10
 115  0.797  0.797  0.004- 122 2.55  13 2.55  94 2.56  30 2.62  99 2.65  93 2.65 112 2.67 124 2.74
                             6 2.96
 116  0.800  0.801  0.401- 117 2.48 100 2.58 122 2.61  96 2.63  15 2.64 121 2.64  32 2.66  90 2.66

 117  0.800  0.804  0.592- 116 2.48 101 2.55  91 2.61  33 2.62  97 2.65  16 2.67 124 2.70 114 2.75
                           121 3.02
 118  0.193  0.399  0.599-  23 2.57  18 2.57   9 2.61  46 2.69  51 2.69  47 2.69  70 2.69  42 2.72
                            19 2.96  22 2.98 123 3.03   4 3.11  66 3.13
 119  0.399  0.400  0.394-  92 2.52  41 2.57  65 2.57   5 2.61  46 2.63  69 2.65   9 2.67  62 2.69
                            61 2.98  91 2.98  45 3.00  87 3.00   4 3.09
 120  0.604  0.200  0.399-  57 2.55 110 2.58   5 2.59  82 2.62  78 2.63  83 2.64  62 2.76 105 2.81
                            87 2.93  61 3.01 109 3.01 106 3.02  77 3.02  58 3.06
 121  0.800  0.598  0.398- 114 2.57 113 2.58  86 2.62  27 2.63 109 2.63  91 2.64 116 2.64  33 2.65
                            28 3.01 117 3.02 108 3.03  90 3.04   5 3.04  32 3.05
 122  0.798  0.799  0.200- 115 2.55 116 2.61  95 2.62  14 2.62  31 2.63   6 2.64  89 2.64 113 2.66
                            13 2.97 100 2.98  94 3.02 112 3.02  90 3.05  32 3.06
 123  0.208  0.606  0.808-  70 2.70  23 2.74  29 2.75  71 2.75  48 2.76  55 2.76  47 2.78  51 2.81
                            67 3.02 118 3.03   8 3.04  75 3.07  28 3.11  24 3.12
 124  0.804  0.803  0.799- 102 2.69 117 2.70 115 2.74  34 2.74  12 2.75  92 2.76  11 2.76  98 2.78
                            16 3.02  99 3.07  97 3.08  30 3.08 114 3.10  93 3.17
 
  LATTYP: Found a triclinic cell.
 ALAT       =    36.9484934985
 B/A-ratio  =     0.3535186554
 C/A-ratio  =     0.5772698908
 COS(alpha) =     0.0002416466
 COS(beta)  =     0.2887267664
 COS(gamma) =     0.9428158987
  
  Lattice vectors:
  
 A1 = (  30.1710571640, -15.0866049150, -15.0762340640)
 A2 = (   7.5429280460,  -7.5406991980,  -7.5403885230)
 A3 = (  15.0799980970,  15.0841177710,  -0.0085907380)


Analysis of symmetry for initial positions (statically):
=====================================================================
 Subroutine PRICEL returns:
 Original cell was already a primitive cell.
 

 Routine SETGRP: Setting up the symmetry group for a 
 triclinic supercell.


 Subroutine GETGRP returns: Found  1 space group operations
 (whereof  1 operations were pure point group operations)
 out of a pool of  2 trial point group operations.


The static configuration has the point symmetry C_1 .


Analysis of symmetry for dynamics (positions and initial velocities):
=====================================================================
 Subroutine PRICEL returns:
 Original cell was already a primitive cell.
 

 Routine SETGRP: Setting up the symmetry group for a 
 triclinic supercell.


 Subroutine GETGRP returns: Found  1 space group operations
 (whereof  1 operations were pure point group operations)
 out of a pool of  2 trial point group operations.


The dynamic configuration has the point symmetry C_1 .


 Subroutine INISYM returns: Found  1 space group operations
 (whereof  1 operations are pure point group operations),
 and found     1 'primitive' translations


----------------------------------------------------------------------------------------

                                     Primitive cell                                     

  volume of cell :    1718.3948

  direct lattice vectors                    reciprocal lattice vectors
    -7.542928046  7.540699198  7.540388523     0.000002930  0.066329719  0.066289639
     7.547476001 -7.553831611  7.558065225     0.066270222  0.000080482  0.066212056
     7.537725071  7.548625092 -7.553522243     0.066313004  0.066294918  0.000037688

  length of vectors
    13.061981740 13.082397179 13.071141431     0.093776052  0.093679160  0.093767969

  position of ions in fractional coordinates (direct lattice)
     0.002412937  0.403825223  0.003952045
     0.401722194  0.004892906  0.800131665
     0.401814062  0.197484163  0.802342554
     0.398112562  0.604239720  0.598017250
     0.598305605  0.395835137  0.397195428
     0.801936643  0.000744468  0.198077208
     0.992687145  0.204920050  0.197966699
     0.201374647  0.804602242  0.005123345
     0.385041795  0.385952934  0.588721664
     0.802307672  0.203900716  0.801610993
     0.789074444  0.586155918  0.796884202
     0.009822008  0.015044766  0.012305661
     0.992862699  0.994149924  0.195684930
     0.998737214  0.996134177  0.404475371
     0.003438508  0.001644151  0.603086102
     0.003850834  0.004276851  0.801052981
     0.998911242  0.205449223  0.996060811
     0.097958191  0.192542638  0.396399526
     0.001298882  0.196301563  0.596185984
     0.003426891  0.198472621  0.798729243
     0.000541828  0.406557191  0.196556165
     0.000758182  0.398518950  0.396432169
     0.996272450  0.398820120  0.598442644
     0.999831688  0.396403606  0.804062462
     0.999609562  0.596760326  0.001213730
     0.997728746  0.600611182  0.199606333
     0.002030969  0.600640660  0.398621396
     0.000980983  0.599340138  0.596604962
     0.988073057  0.591342942  0.792290414
     0.001422145  0.803922078  0.010412232
     0.001303405  0.799532062  0.204543470
     0.004675210  0.801220179  0.402133889
     0.002288062  0.801747642  0.600503143
     0.013929581  0.800937451  0.801301929
     0.203591227  0.008987983  0.005148422
     0.197232369  0.998428177  0.199220168
     0.198578331  0.010139448  0.404348101
     0.203411041  0.001983820  0.602013468
     0.204504188  0.002187283  0.801456918
     0.201046082  0.201270441  0.001163787
     0.198531260  0.199764584  0.206871250
     0.202077518  0.196521011  0.606631114
     0.204815656  0.198428307  0.803107942
     0.199257614  0.399166966  0.002344574
     0.197408166  0.398991812  0.197879924
     0.205344713  0.413022404  0.402316838
     0.201796923  0.389893004  0.804091623
     0.204665198  0.598127862  0.015529776
     0.198280362  0.599852221  0.198701099
     0.199567331  0.604763748  0.396711490
     0.204576580  0.605234406  0.592115555
     0.200699054  0.804621197  0.207567845
     0.201329174  0.804794500  0.402300996
     0.203882645  0.805845570  0.601102054
     0.200896509  0.809908096  0.795709041
     0.402202257  0.003922714  0.000843238
     0.405074949  0.006367177  0.205793534
     0.399857126  0.002619241  0.402578344
     0.400170271  0.999801883  0.601520326
     0.402285703  0.200977756  0.999936619
     0.403385818  0.201364251  0.202035538
     0.390205864  0.193575872  0.399905208
     0.403883992  0.195640601  0.612229168
     0.401539729  0.399786344  0.003759415
     0.398170272  0.397899360  0.197124972
     0.400089934  0.395446360  0.803641365
     0.404347653  0.599634060  0.006340319
     0.401171848  0.600532812  0.202211328
     0.399725306  0.604448532  0.400521167
     0.409293535  0.600585832  0.797271654
     0.420088148  0.816776972  0.017180261
     0.402958653  0.804043699  0.203955118
     0.400111942  0.803694153  0.399379551
     0.400668972  0.801867653  0.598042554
     0.402113529  0.810316955  0.800459765
     0.598373344  0.999811471  0.997254998
     0.609082061  0.001872399  0.201733316
     0.603708308  0.999601740  0.400208042
     0.596905452  0.997825110  0.595832796
     0.595288365  0.000999334  0.798480284
     0.596375363  0.197160021  0.997287093
     0.602185543  0.199388357  0.197489743
     0.599699386  0.196568827  0.598561339
     0.594508173  0.200696119  0.800379846
     0.596218554  0.394307471  0.997244846
     0.597781160  0.396368021  0.199744901
     0.591327662  0.387430304  0.586987591
     0.597078695  0.397263010  0.798021756
     0.595561775  0.594440528  0.999765038
     0.595373824  0.596703178  0.198294444
     0.598448453  0.599624802  0.398640146
     0.586731089  0.592194953  0.592210932
     0.590959620  0.597100850  0.800824054
     0.601117498  0.802053404  0.000266290
     0.598999321  0.799918889  0.201718707
     0.599100708  0.801153073  0.400663319
     0.598413872  0.803063268  0.596664378
     0.587301175  0.798147913  0.792213597
     0.793681368  0.997623417  0.000385083
     0.802284225  0.998157053  0.399127821
     0.802154800  0.002591371  0.599915437
     0.798589095  0.006540827  0.800440887
     0.796879183  0.199120905  0.001604209
     0.791460521  0.196340648  0.191288939
     0.817396685  0.199709684  0.395454902
     0.806567952  0.198614843  0.594815177
     0.800092149  0.397990473  0.999523582
     0.799068438  0.397376524  0.196757767
     0.802701519  0.397635147  0.397262840
     0.800919904  0.396500165  0.596666194
     0.798502061  0.396320295  0.797911255
     0.796698380  0.592764613  0.003612743
     0.797150333  0.594325888  0.198125723
     0.794255444  0.591051585  0.589792539
     0.796503845  0.797243587  0.003996477
     0.800334322  0.801101175  0.400980704
     0.800042031  0.804128843  0.591857129
     0.192812608  0.398528896  0.598525989
     0.399132267  0.399808500  0.394385691
     0.603580906  0.200023559  0.398888830
     0.799606491  0.598140385  0.397769088
     0.798411715  0.798740302  0.199843964
     0.208116584  0.605631243  0.808320958
     0.803700955  0.802509522  0.798854702

  ion indices of the primitive-cell ions
   primitive index   ion index
                 1           1
                 2           2
                 3           3
                 4           4
                 5           5
                 6           6
                 7           7
                 8           8
                 9           9
                10          10
                11          11
                12          12
                13          13
                14          14
                15          15
                16          16
                17          17
                18          18
                19          19
                20          20
                21          21
                22          22
                23          23
                24          24
                25          25
                26          26
                27          27
                28          28
                29          29
                30          30
                31          31
                32          32
                33          33
                34          34
                35          35
                36          36
                37          37
                38          38
                39          39
                40          40
                41          41
                42          42
                43          43
                44          44
                45          45
                46          46
                47          47
                48          48
                49          49
                50          50
                51          51
                52          52
                53          53
                54          54
                55          55
                56          56
                57          57
                58          58
                59          59
                60          60
                61          61
                62          62
                63          63
                64          64
                65          65
                66          66
                67          67
                68          68
                69          69
                70          70
                71          71
                72          72
                73          73
                74          74
                75          75
                76          76
                77          77
                78          78
                79          79
                80          80
                81          81
                82          82
                83          83
                84          84
                85          85
                86          86
                87          87
                88          88
                89          89
                90          90
                91          91
                92          92
                93          93
                94          94
                95          95
                96          96
                97          97
                98          98
                99          99
               100         100
               101         101
               102         102
               103         103
               104         104
               105         105
               106         106
               107         107
               108         108
               109         109
               110         110
               111         111
               112         112
               113         113
               114         114
               115         115
               116         116
               117         117
               118         118
               119         119
               120         120
               121         121
               122         122
               123         123
               124         124

----------------------------------------------------------------------------------------

 
 
 KPOINTS: KPOINTS generated by db_to_vasp         

Automatic generation of k-mesh.
 Grid dimensions read from file:
 generate k-points for:    4    4    4

 Generating k-lattice:

  Cartesian coordinates                     Fractional coordinates (reciprocal lattice)
     0.000000732  0.016582430  0.016572410     0.250000000 -0.000000000 -0.000000000
     0.016567555  0.000020120  0.016553014    -0.000000000  0.250000000 -0.000000000
     0.016578251  0.016573730  0.000009422     0.000000000 -0.000000000  0.250000000

  Length of vectors
     0.023444013  0.023419790  0.023441992

  Shift w.r.t. Gamma in fractional coordinates (k-lattice)
     0.000000000  0.000000000  0.000000000

 
 Subroutine IBZKPT returns following result:
 ===========================================
 
 Found     36 irreducible k-points:
 
 Following reciprocal coordinates:
            Coordinates               Weight
  0.000000  0.000000  0.000000      1.000000
  0.250000  0.000000  0.000000      2.000000
  0.500000  0.000000  0.000000      1.000000
  0.000000  0.250000  0.000000      2.000000
  0.250000  0.250000  0.000000      2.000000
  0.500000  0.250000  0.000000      2.000000
 -0.250000  0.250000  0.000000      2.000000
  0.000000  0.500000  0.000000      1.000000
  0.250000  0.500000  0.000000      2.000000
  0.500000  0.500000  0.000000      1.000000
  0.000000  0.000000  0.250000      2.000000
  0.250000  0.000000  0.250000      2.000000
  0.500000  0.000000  0.250000      2.000000
 -0.250000  0.000000  0.250000      2.000000
  0.000000  0.250000  0.250000      2.000000
  0.250000  0.250000  0.250000      2.000000
  0.500000  0.250000  0.250000      2.000000
 -0.250000  0.250000  0.250000      2.000000
  0.000000  0.500000  0.250000      2.000000
  0.250000  0.500000  0.250000      2.000000
  0.500000  0.500000  0.250000      2.000000
 -0.250000  0.500000  0.250000      2.000000
  0.000000 -0.250000  0.250000      2.000000
  0.250000 -0.250000  0.250000      2.000000
  0.500000 -0.250000  0.250000      2.000000
 -0.250000 -0.250000  0.250000      2.000000
  0.000000  0.000000  0.500000      1.000000
  0.250000  0.000000  0.500000      2.000000
  0.500000  0.000000  0.500000      1.000000
  0.000000  0.250000  0.500000      2.000000
  0.250000  0.250000  0.500000      2.000000
  0.500000  0.250000  0.500000      2.000000
 -0.250000  0.250000  0.500000      2.000000
  0.000000  0.500000  0.500000      1.000000
  0.250000  0.500000  0.500000      2.000000
  0.500000  0.500000  0.500000      1.000000
 
 Following cartesian coordinates:
            Coordinates               Weight
  0.000000  0.000000  0.000000      1.000000
  0.000001  0.016582  0.016572      2.000000
  0.000001  0.033165  0.033145      1.000000
  0.016568  0.000020  0.016553      2.000000
  0.016568  0.016603  0.033125      2.000000
  0.016569  0.033185  0.049698      2.000000
  0.016567 -0.016562 -0.000019      2.000000
  0.033135  0.000040  0.033106      1.000000
  0.033136  0.016623  0.049678      2.000000
  0.033137  0.033205  0.066251      1.000000
  0.016578  0.016574  0.000009      2.000000
  0.016579  0.033156  0.016582      2.000000
  0.016580  0.049739  0.033154      2.000000
  0.016578 -0.000009 -0.016563      2.000000
  0.033146  0.016594  0.016562      2.000000
  0.033147  0.033176  0.033135      2.000000
  0.033147  0.049759  0.049707      2.000000
  0.033145  0.000011 -0.000010      2.000000
  0.049713  0.016614  0.033115      2.000000
  0.049714  0.033196  0.049688      2.000000
  0.049715  0.049779  0.066260      2.000000
  0.049713  0.000032  0.016543      2.000000
  0.000011  0.016554 -0.016544      2.000000
  0.000011  0.033136  0.000029      2.000000
  0.000012  0.049718  0.016601      2.000000
  0.000010 -0.000029 -0.033116      2.000000
  0.033157  0.033147  0.000019      1.000000
  0.033157  0.049730  0.016591      2.000000
  0.033158  0.066312  0.033164      1.000000
  0.049724  0.033168  0.016572      2.000000
  0.049725  0.049750  0.033144      2.000000
  0.049726  0.066332  0.049717      2.000000
  0.049723  0.016585 -0.000001      2.000000
  0.066292  0.033188  0.033125      1.000000
  0.066292  0.049770  0.049697      2.000000
  0.066293  0.066353  0.066270      1.000000
 


--------------------------------------------------------------------------------------------------------




 Dimension of arrays:
   k-points           NKPTS =     36   k-points in BZ     NKDIM =     36   number of bands    NBANDS=    832
   number of dos      NEDOS =    301   number of ions     NIONS =    124
   non local maximal  LDIM  =      6   non local SUM 2l+1 LMDIM =     18
   total plane-waves  NPLWV = 941192
   max r-space proj   IRMAX =      1   max aug-charges    IRDMAX=  31460
   dimension x,y,z NGX =    98 NGY =   98 NGZ =   98
   dimension x,y,z NGXF=   196 NGYF=  196 NGZF=  196
   support grid    NGXF=   196 NGYF=  196 NGZF=  196
   ions per type =               6   5 106   5   2
   NGX,Y,Z   is equivalent  to a cutoff of  12.47, 12.45, 12.46 a.u.
   NGXF,Y,Z  is equivalent  to a cutoff of  24.95, 24.91, 24.93 a.u.

 SYSTEM =  unknown system                          
 POSCAR =  Cr Ti V  W  Zr                          

 Startparameter for this run:
   NWRITE =      2    write-flag & timer
   PREC   = accura    normal or accurate (medium, high low for compatibility)
   ISTART =      0    job   : 0-new  1-cont  2-samecut
   ICHARG =      2    charge: 1-file 2-atom 10-const
   ISPIN  =      1    spin polarized calculation?
   LNONCOLLINEAR =      F non collinear calculations
   LSORBIT =      F    spin-orbit coupling
   INIWAV =      1    electr: 0-lowe 1-rand  2-diag
   LASPH  =      F    aspherical Exc in radial PAW
 Electronic Relaxation 1
   ENCUT  =  520.0 eV  38.22 Ry    6.18 a.u.  24.29 24.32 24.30*2*pi/ulx,y,z
   ENINI  =  520.0     initial cutoff
   ENAUG  =  598.5 eV  augmentation charge cutoff
   NELM   =    100;   NELMIN=  2; NELMDL= -5     # of ELM steps 
   EDIFF  = 0.1E-05   stopping-criterion for ELM
   LREAL  =      F    real-space projection
   NLSPLINE    = F    spline interpolate recip. space projectors
   LCOMPAT=      F    compatible to vasp.4.4
   GGA_COMPAT  = T    GGA compatible to vasp.4.4-vasp.4.6
   LMAXPAW     = -100 max onsite density
   LMAXMIX     =    2 max onsite mixed and CHGCAR
   VOSKOWN=      0    Vosko Wilk Nusair interpolation
   ROPT   =    0.00000   0.00000   0.00000   0.00000
   ROPT   =    0.00000
 Ionic relaxation
   EDIFFG = -.1E-01   stopping-criterion for IOM
   NSW    =     -1    number of steps for IOM
   NBLOCK =      1;   KBLOCK =      1    inner block; outer block 
   IBRION =      2    ionic relax: 0-MD 1-quasi-New 2-CG
   NFREE  =      1    steps in history (QN), initial steepest desc. (CG)
   ISIF   =      2    stress and relaxation
   IWAVPR =     11    prediction:  0-non 1-charg 2-wave 3-comb
   ISYM   =      2    0-nonsym 1-usesym 2-fastsym
   LCORR  =      T    Harris-Foulkes like correction to forces

   POTIM  = 0.2000    time-step for ionic-motion
   TEIN   =    0.0    initial temperature
   TEBEG  =    0.0;   TEEND  =   0.0 temperature during run
   SMASS  =  -3.00    Nose mass-parameter (am)
   estimated Nose-frequenzy (Omega)   =  0.10E-29 period in steps = 0.31E+47 mass=  -0.390E-26a.u.
   SCALEE = 1.0000    scale energy and forces
   NPACO  =    256;   APACO  = 10.0  distance and # of slots for P.C.
   PSTRESS=    0.0 pullay stress

  Mass of Ions in am
   POMASS =  52.00 47.88 50.94183.85 91.22
  Ionic Valenz
   ZVAL   =  12.00 10.00 11.00 14.00 12.00
  Atomic Wigner-Seitz radii
   RWIGS  =  -1.00 -1.00 -1.00 -1.00 -1.00
  virtual crystal weights 
   VCA    =   1.00  1.00  1.00  1.00  1.00
   NELECT =    1382.0000    total number of electrons
   NUPDOWN=      -1.0000    fix difference up-down

 DOS related values:
   EMIN   =  10.00;   EMAX   =-10.00  energy-range for DOS
   EFERMI =   0.00;   METHOD = LEGACY      
   ISMEAR =     1;   SIGMA  =   0.20  broadening in eV -4-tet -1-fermi 0-gaus

 Electronic relaxation 2 (details)
   IALGO  =     38    algorithm
   LDIAG  =      T    sub-space diagonalisation (order eigenvalues)
   LSUBROT=      F    optimize rotation matrix (better conditioning)
   TURBO    =      0    0=normal 1=particle mesh
   IRESTART =      0    0=no restart 2=restart with 2 vectors
   NREBOOT  =      0    no. of reboots
   NMIN     =      0    reboot dimension
   EREF     =   0.00    reference energy to select bands
   IMIX   =      4    mixing-type and parameters
     AMIX     =   0.40;   BMIX     =  1.00
     AMIX_MAG =   1.60;   BMIX_MAG =  1.00
     AMIN     =   0.10
     WC   =   100.;   INIMIX=   1;  MIXPRE=   1;  MAXMIX= -45

 Intra band minimization:
   WEIMIN = 0.0010     energy-eigenvalue tresh-hold
   EBREAK =  0.30E-09  absolut break condition
   DEPER  =   0.30     relativ break condition  

   TIME   =   0.40     timestep for ELM

  volume/ion in A,a.u.               =      13.86        93.52
  Fermi-wavevector in a.u.,A,eV,Ry     =   1.522427  2.876970 31.535373  2.317785
  Thomas-Fermi vector in A             =   2.631008
 
 Write flags
   LWAVE        =      F    write WAVECAR
   LDOWNSAMPLE  =      F    k-point downsampling of WAVECAR
   LCHARG       =      T    write CHGCAR
   LVTOT        =      F    write LOCPOT, total local potential
   LVHAR        =      F    write LOCPOT, Hartree potential only
   LELF         =      F    write electronic localiz. function (ELF)
   LORBIT       =     11    0 simple, 1 ext, 2 COOP (PROOUT), +10 PAW based schemes


 Dipole corrections
   LMONO  =      F    monopole corrections only (constant potential shift)
   LDIPOL =      F    correct potential (dipole corrections)
   IDIPOL =      0    1-x, 2-y, 3-z, 4-all directions 
   EPSILON=  1.0000000 bulk dielectric constant

 Exchange correlation treatment:
   GGA     =    PE    GGA type
   LEXCH   =     8    internal setting for exchange type
   LIBXC   =     F    Libxc                    
   VOSKOWN =     0    Vosko Wilk Nusair interpolation
   LHFCALC =     F    Hartree Fock is set to
   LHFONE  =     F    Hartree Fock one center treatment
   AEXX    =    0.0000 exact exchange contribution

 Linear response parameters
   LEPSILON=     F    determine dielectric tensor
   LRPA    =     F    only Hartree local field effects (RPA)
   LNABLA  =     F    use nabla operator in PAW spheres
   LVEL    =     F    velocity operator in full k-point grid
   CSHIFT  =0.1000    complex shift for real part using Kramers Kronig
   OMEGAMAX=  -1.0    maximum frequency
   DEG_THRESHOLD= 0.2000000E-02 threshold for treating states as degnerate
   RTIME   =   -0.100 relaxation time in fs
  (WPLASMAI=    0.000 imaginary part of plasma frequency in eV, 0.658/RTIME)
   DFIELD  = 0.0000000 0.0000000 0.0000000 field for delta impulse in time
 
  Optional k-point grid parameters
   LKPOINTS_OPT  =     F    use optional k-point grid
   KPOINTS_OPT_MODE=     1    mode for optional k-point grid
 
 Orbital magnetization related:
   ORBITALMAG=     F  switch on orbital magnetization
   LCHIMAG   =     F  perturbation theory with respect to B field
   DQ        =  0.001000  dq finite difference perturbation B field
   LLRAUG    =     F  two centre corrections for induced B field
   LBONE     =     F  B-component reconstruction in AE one-centre
   LVGVCALC  =     T  calculate vGv susceptibility
   LVGVAPPL  =     F  apply vGv susceptibility instead of pGv for G=0

 Random number generation:
   RANDOM_GENERATOR = DEFAULT
   PCG_SEED         = not used


--------------------------------------------------------------------------------------------------------


 conjugate gradient relaxation of ions
 charge density and potential will be updated during run
 non-spin polarized calculation
 Variant of blocked Davidson
 Davidson routine will perform the subspace rotation
 perform sub-space diagonalisation
    after iterative eigenvector-optimisation
 modified Broyden-mixing scheme, WC =      100.0
 initial mixing is a Kerker type mixing with AMIX =  0.4000 and BMIX =      1.0000
 Hartree-type preconditioning will be used
 using additional bands           141
 reciprocal scheme for non local part
 use partial core corrections
 calculate Harris-corrections to forces 
   (improved forces if not selfconsistent)
 use gradient corrections 
 use of overlap-Matrix (Vanderbilt PP)
 Methfessel and Paxton  Order N= 1 SIGMA  =   0.20


--------------------------------------------------------------------------------------------------------


  energy-cutoff  :      520.00
  volume of cell :     1718.39
      direct lattice vectors                 reciprocal lattice vectors
    -7.542928046  7.540699198  7.540388523     0.000002930  0.066329719  0.066289639
     7.547476001 -7.553831611  7.558065225     0.066270222  0.000080482  0.066212056
     7.537725071  7.548625092 -7.553522243     0.066313004  0.066294918  0.000037688

  length of vectors
    13.061981740 13.082397179 13.071141431     0.093776052  0.093679160  0.093767969


 
 k-points in units of 2pi/SCALE and weight: KPOINTS generated by db_to_vasp         
   0.00000000  0.00000000  0.00000000       0.016
   0.00000073  0.01658243  0.01657241       0.031
   0.00000146  0.03316486  0.03314482       0.016
   0.01656756  0.00002012  0.01655301       0.031
   0.01656829  0.01660255  0.03312542       0.031
   0.01656902  0.03318498  0.04969783       0.031
   0.01656682 -0.01656231 -0.00001940       0.031
   0.03313511  0.00004024  0.03310603       0.016
   0.03313584  0.01662267  0.04967844       0.031
   0.03313658  0.03320510  0.06625085       0.016
   0.01657825  0.01657373  0.00000942       0.031
   0.01657898  0.03315616  0.01658183       0.031
   0.01657972  0.04973859  0.03315424       0.031
   0.01657752 -0.00000870 -0.01656299       0.031
   0.03314581  0.01659385  0.01656244       0.031
   0.03314654  0.03317628  0.03313485       0.031
   0.03314727  0.04975871  0.04970726       0.031
   0.03314507  0.00001142 -0.00000997       0.031
   0.04971336  0.01661397  0.03311545       0.031
   0.04971409  0.03319640  0.04968786       0.031
   0.04971483  0.04977883  0.06626027       0.031
   0.04971263  0.00003154  0.01654304       0.031
   0.00001070  0.01655361 -0.01654359       0.031
   0.00001143  0.03313604  0.00002882       0.031
   0.00001216  0.04971847  0.01660123       0.031
   0.00000996 -0.00002882 -0.03311600       0.031
   0.03315650  0.03314746  0.00001884       0.016
   0.03315723  0.04972989  0.01659125       0.031
   0.03315797  0.06631232  0.03316366       0.016
   0.04972406  0.03316758  0.01657186       0.031
   0.04972479  0.04975001  0.03314427       0.031
   0.04972552  0.06633244  0.04971668       0.031
   0.04972332  0.01658515 -0.00000055       0.031
   0.06629161  0.03318770  0.03312487       0.016
   0.06629235  0.04977013  0.04969728       0.031
   0.06629308  0.06635256  0.06626969       0.016
 
 k-points in reciprocal lattice and weights: KPOINTS generated by db_to_vasp         
   0.00000000  0.00000000  0.00000000       0.016
   0.25000000  0.00000000  0.00000000       0.031
   0.50000000  0.00000000  0.00000000       0.016
   0.00000000  0.25000000  0.00000000       0.031
   0.25000000  0.25000000  0.00000000       0.031
   0.50000000  0.25000000  0.00000000       0.031
  -0.25000000  0.25000000  0.00000000       0.031
   0.00000000  0.50000000  0.00000000       0.016
   0.25000000  0.50000000  0.00000000       0.031
   0.50000000  0.50000000  0.00000000       0.016
   0.00000000  0.00000000  0.25000000       0.031
   0.25000000  0.00000000  0.25000000       0.031
   0.50000000  0.00000000  0.25000000       0.031
  -0.25000000  0.00000000  0.25000000       0.031
   0.00000000  0.25000000  0.25000000       0.031
   0.25000000  0.25000000  0.25000000       0.031
   0.50000000  0.25000000  0.25000000       0.031
  -0.25000000  0.25000000  0.25000000       0.031
   0.00000000  0.50000000  0.25000000       0.031
   0.25000000  0.50000000  0.25000000       0.031
   0.50000000  0.50000000  0.25000000       0.031
  -0.25000000  0.50000000  0.25000000       0.031
   0.00000000 -0.25000000  0.25000000       0.031
   0.25000000 -0.25000000  0.25000000       0.031
   0.50000000 -0.25000000  0.25000000       0.031
  -0.25000000 -0.25000000  0.25000000       0.031
   0.00000000  0.00000000  0.50000000       0.016
   0.25000000  0.00000000  0.50000000       0.031
   0.50000000  0.00000000  0.50000000       0.016
   0.00000000  0.25000000  0.50000000       0.031
   0.25000000  0.25000000  0.50000000       0.031
   0.50000000  0.25000000  0.50000000       0.031
  -0.25000000  0.25000000  0.50000000       0.031
   0.00000000  0.50000000  0.50000000       0.016
   0.25000000  0.50000000  0.50000000       0.031
   0.50000000  0.50000000  0.50000000       0.016
 
 position of ions in fractional coordinates (direct lattice) 
   0.00241294  0.40382522  0.00395204
   0.40172219  0.00489291  0.80013167
   0.40181406  0.19748416  0.80234255
   0.39811256  0.60423972  0.59801725
   0.59830560  0.39583514  0.39719543
   0.80193664  0.00074447  0.19807721
   0.99268715  0.20492005  0.19796670
   0.20137465  0.80460224  0.00512334
   0.38504179  0.38595293  0.58872166
   0.80230767  0.20390072  0.80161099
   0.78907444  0.58615592  0.79688420
   0.00982201  0.01504477  0.01230566
   0.99286270  0.99414992  0.19568493
   0.99873721  0.99613418  0.40447537
   0.00343851  0.00164415  0.60308610
   0.00385083  0.00427685  0.80105298
   0.99891124  0.20544922  0.99606081
   0.09795819  0.19254264  0.39639953
   0.00129888  0.19630156  0.59618598
   0.00342689  0.19847262  0.79872924
   0.00054183  0.40655719  0.19655616
   0.00075818  0.39851895  0.39643217
   0.99627245  0.39882012  0.59844264
   0.99983169  0.39640361  0.80406246
   0.99960956  0.59676033  0.00121373
   0.99772875  0.60061118  0.19960633
   0.00203097  0.60064066  0.39862140
   0.00098098  0.59934014  0.59660496
   0.98807306  0.59134294  0.79229041
   0.00142215  0.80392208  0.01041223
   0.00130341  0.79953206  0.20454347
   0.00467521  0.80122018  0.40213389
   0.00228806  0.80174764  0.60050314
   0.01392958  0.80093745  0.80130193
   0.20359123  0.00898798  0.00514842
   0.19723237  0.99842818  0.19922017
   0.19857833  0.01013945  0.40434810
   0.20341104  0.00198382  0.60201347
   0.20450419  0.00218728  0.80145692
   0.20104608  0.20127044  0.00116379
   0.19853126  0.19976458  0.20687125
   0.20207752  0.19652101  0.60663111
   0.20481566  0.19842831  0.80310794
   0.19925761  0.39916697  0.00234457
   0.19740817  0.39899181  0.19787992
   0.20534471  0.41302240  0.40231684
   0.20179692  0.38989300  0.80409162
   0.20466520  0.59812786  0.01552978
   0.19828036  0.59985222  0.19870110
   0.19956733  0.60476375  0.39671149
   0.20457658  0.60523441  0.59211556
   0.20069905  0.80462120  0.20756784
   0.20132917  0.80479450  0.40230100
   0.20388264  0.80584557  0.60110205
   0.20089651  0.80990810  0.79570904
   0.40220226  0.00392271  0.00084324
   0.40507495  0.00636718  0.20579353
   0.39985713  0.00261924  0.40257834
   0.40017027  0.99980188  0.60152033
   0.40228570  0.20097776  0.99993662
   0.40338582  0.20136425  0.20203554
   0.39020586  0.19357587  0.39990521
   0.40388399  0.19564060  0.61222917
   0.40153973  0.39978634  0.00375942
   0.39817027  0.39789936  0.19712497
   0.40008993  0.39544636  0.80364137
   0.40434765  0.59963406  0.00634032
   0.40117185  0.60053281  0.20221133
   0.39972531  0.60444853  0.40052117
   0.40929354  0.60058583  0.79727165
   0.42008815  0.81677697  0.01718026
   0.40295865  0.80404370  0.20395512
   0.40011194  0.80369415  0.39937955
   0.40066897  0.80186765  0.59804255
   0.40211353  0.81031696  0.80045977
   0.59837334  0.99981147  0.99725500
   0.60908206  0.00187240  0.20173332
   0.60370831  0.99960174  0.40020804
   0.59690545  0.99782511  0.59583280
   0.59528836  0.00099933  0.79848028
   0.59637536  0.19716002  0.99728709
   0.60218554  0.19938836  0.19748974
[...]
   -.194E+03 -.129E+03 0.229E+02   0.195E+03 0.129E+03 -.232E+02   -.502E+00 -.298E+00 0.316E+00   0.436E-02 0.267E-02 -.168E-02
   0.154E+03 0.664E+02 -.110E+03   -.155E+03 -.661E+02 0.109E+03   0.708E+00 -.255E+00 0.621E+00   -.338E-02 -.125E-02 0.124E-02
   -.489E+02 -.555E+01 -.115E+02   0.490E+02 0.547E+01 0.115E+02   -.348E-01 0.742E-01 0.235E-02   0.105E-02 -.134E-02 -.311E-02
   -.908E+02 -.118E+03 0.804E+02   0.902E+02 0.117E+03 -.799E+02   0.619E+00 0.691E+00 -.509E+00   0.285E-02 0.303E-02 -.256E-02
   0.409E+02 0.395E+02 0.572E+02   -.406E+02 -.394E+02 -.572E+02   -.288E+00 -.139E+00 0.714E-01   0.371E-02 -.535E-05 0.447E-02
   -.386E+02 -.286E+02 0.211E+03   0.381E+02 0.286E+02 -.210E+03   0.531E+00 0.168E-01 -.920E+00   -.194E-02 -.190E-02 0.136E-02
   0.123E+02 -.701E+02 0.288E+02   -.122E+02 0.700E+02 -.288E+02   -.103E+00 0.671E-01 -.255E-04   -.300E-03 -.148E-02 -.528E-02
   -.483E+02 -.580E+02 -.959E+01   0.483E+02 0.580E+02 0.987E+01   -.241E-01 0.467E-01 -.272E+00   0.341E-02 -.578E-03 -.295E-02
   0.193E+02 0.840E+01 -.503E+02   -.193E+02 -.839E+01 0.503E+02   -.559E-01 -.165E-01 0.878E-04   -.249E-02 -.160E-02 -.103E-02
   -.730E+02 0.116E+02 0.278E+02   0.728E+02 -.119E+02 -.279E+02   0.110E+00 0.252E+00 0.986E-01   0.299E-02 0.824E-03 0.996E-03
   0.361E+02 -.851E+02 0.230E+02   -.357E+02 0.847E+02 -.230E+02   -.453E+00 0.346E+00 -.670E-02   -.160E-02 0.901E-03 0.182E-02
 -----------------------------------------------------------------------------------------------
   -.846E+00 -.369E+00 0.154E+00   -.144E-11 -.260E-11 0.292E-11   0.841E+00 0.371E+00 -.144E+00   0.229E-02 -.194E-03 -.928E-02
 
 
 POSITION                                       TOTAL-FORCE (eV/Angst)
 -----------------------------------------------------------------------------------
      3.05945     -3.00240      3.04048        -0.000120     -0.000346      0.000687
      3.03794      9.03220     -2.97769        -0.000652      0.000045     -0.000361
      4.50749      7.59478     -1.53808        -0.000242     -0.000339     -0.000149
      6.06524      2.95193      3.05167        -0.000128      0.000013     -0.000231
      1.46853      4.51985      4.50298        -0.000074     -0.000101      0.000030
     -4.55028      7.53675      4.55636        -0.000209      0.000339      0.001025
     -4.44892      7.43200      7.53870         0.001163      0.000423     -0.001963
      4.59238     -4.52065      7.56098         0.000223      0.000673     -0.000136
      4.44625      4.43210      1.37350         0.000280     -0.000314     -0.000605
      1.52951     10.56079      1.53582         0.000534     -0.000009     -0.000070
      4.47876      7.53783      4.36085        -0.000112     -0.000897     -0.000518
      0.13222      0.05331      0.09482         0.000571     -0.000621     -0.000501
      1.48925      1.45439     13.52231        -0.001260     -0.000050     -0.000485
      3.03372      3.05978     12.00450         0.001154     -0.001071     -0.000287
      4.53237      4.56598     -4.51707         0.000046      0.000151     -0.000225
      6.04135      6.04358     -5.98941        -0.000094      0.000471     -0.000703
      1.52394     13.49945      1.56121         0.000920      0.000979     -0.001544
      3.70227      2.27651     -0.80032        -0.000130      0.000038     -0.000179
      5.96567      3.02735     -3.00985         0.001646      0.000397     -0.000909
      7.49272      4.55592     -4.50731         0.000107      0.001407     -0.000974
      4.54598     -1.58325      1.59218        -0.000845     -0.000341      0.000781
      5.99029     -0.01211      0.02329         0.001264     -0.001393      0.001169
      0.00617      9.01739      6.00624         0.001446      0.000060     -0.000278
      1.51099     10.61463      4.46166         0.000549      0.000921      0.000004
     -3.02680      3.03909     12.03863         0.000581     -0.000431     -0.000105
     -1.48812      4.49341     10.55499         0.000631     -0.000666      0.000529
      7.52270     -1.51278      1.54400        -0.000333     -0.000326      0.001122
      9.01315     -0.01637      0.03078         0.000157     -0.000426      0.000528
      2.98225      8.96456      5.93528         0.001259      0.000402      0.000181
      6.13534     -5.98337      6.00817         0.000606     -0.000056     -0.000593
      7.56641     -4.48568      4.50772         0.000576     -0.000315     -0.000319
      9.04310     -2.98147      3.05340         0.000403     -0.000394     -0.000031
     10.56034     -1.50604      1.54100        -0.000132      0.000326     -0.000169
     11.97998      0.10362      0.10592        -0.000257      0.000637     -0.000299
     -1.42903      1.50619      1.56420         0.000301      0.000452      0.000313
      7.54957     -4.55085      7.52858        -0.000094      0.000644      0.000640
      1.62653      4.47310     -1.48026         0.000313     -0.000458      0.000195
      3.01847      6.06325     -2.99853        -0.000264     -0.000617     -0.000081
      4.51511      7.57548     -4.49525        -0.000669      0.000388     -0.000101
      0.01138      0.00445      3.02839         0.000428      0.000162     -0.000390
      1.56955      1.54967      1.44423        -0.000226     -0.000220      0.000356
      4.53160      4.61855     -1.57314         0.000367     -0.000514     -0.000451
      6.00633      6.10792     -3.02217         0.000213      0.000317     -0.000187
      1.52739     -1.49500      4.50170         0.000722      0.000532     -0.000337
      3.01391     -0.03160      3.00945         0.000421      0.000165     -0.000477
      4.60093      1.46548      1.63112         0.000066     -0.000533      0.000212
      7.48159      4.64629     -1.60526         0.000128      0.000423      0.000230
      3.08764     -2.85761      5.94664         0.000525      0.000266      0.000357
      4.52951     -1.53609      4.52794         0.000610     -0.000038      0.000074
      6.04942     -0.06878      3.07909         0.000069     -0.000420      0.000539
      7.48809      1.44047      1.64443        -0.000276     -0.000673      0.000560
      6.12359     -2.99771      6.02686         0.000872     -0.000502     -0.000522
      7.58799     -1.52430      4.56200         0.000337     -0.000453      0.000041
      9.07517     -0.01231      3.08755        -0.000015     -0.000635     -0.000105
     10.59525      1.40350      1.62577        -0.000185      0.000707      0.000468
     -2.99782      3.00962      3.05604        -0.000745      0.000525      0.000785
     -1.45618      4.55991      1.54808        -0.000433      0.000786      0.001087
      0.03820      6.03433     -0.00601        -0.000455      0.000451      0.000297
      9.06162      0.00588      6.03041        -0.000318     -0.000498      0.000129
      6.01971      9.06351     -3.00065         0.000045      0.000140      0.000009
     -0.00003      3.04583      3.03753        -0.000174      0.000536      0.000898
      1.53209      4.49892      1.38467        -0.000353      0.001052      0.001133
      3.04494      6.18922     -0.10038        -0.000524     -0.000356      0.000221
      0.01693      0.03635      6.02098        -0.000057      0.000435      0.000148
      1.48564      1.48484      4.52072         0.000671      0.000304     -0.000188
      6.02440      6.09621     -0.06468        -0.000100     -0.000802     -0.000350
      1.52355     -1.43261      7.53312        -0.000367      0.000567     -0.000164
      3.03071      0.01521      6.03645         0.000401     -0.000186      0.000064
      4.56598      1.47169      4.55720         0.000192      0.000035     -0.000128
      7.45525      4.56794      1.60329        -0.001038     -0.000545     -0.000820
      3.12541     -2.87235      9.21111        -0.001017      0.000351     -0.000206
      4.56637     -1.49544      7.57490        -0.000161      0.000084     -0.000069
      6.05826     -0.03908      6.07465         0.000330     -0.000124      0.000217
      7.53774      1.47855      4.56444         0.000110     -0.000670      0.000123
      9.11638      2.95359      3.11023        -0.000661      0.000136     -0.000120
     10.54960      4.48765      4.53582        -0.000957      0.000042      0.000519
     -3.05952      6.10157      3.08307        -0.001435      0.000534      0.000709
      6.00740      0.02258      9.08427        -0.000761      0.000658      0.000016
      7.51987      1.46140      7.54189        -0.000570      0.000106      0.000189
      1.53605     10.50877     -1.53508         0.000065     -0.000578      0.000014
      4.50692     10.53592     -1.54598        -0.000265      0.000036      0.000637
     -1.54874      4.52553      4.55596        -0.000637      0.000191      0.000891
      1.47190      7.55562      1.48640        -0.000705      0.000544      0.000307
      3.06346      9.00875     -0.04599         0.000548     -0.000706     -0.000254
      5.99575      9.04520     -0.05679         0.000348      0.000152      0.000244
     -0.01182      3.02139      5.99450        -0.000172      0.000467      0.000576
      2.88833      5.96339      2.95324        -0.000715     -0.000199     -0.000642
      4.50988      7.52550      1.47687         0.000417     -0.000737     -0.000501
      7.53020      7.54750      1.43184        -0.000491     -0.000111     -0.000572
      1.50743      1.47899      7.50145         0.000282      0.000541     -0.000151
      3.01644      2.99244      6.03340         0.000349      0.000417     -0.000222
      4.50783      4.42140      4.42675        -0.000011     -0.000314     -0.000910
      6.08543      5.99097      2.91995         0.000051     -0.001304     -0.000624
      1.52130     -1.52372     10.59262        -0.000776     -0.000346     -0.000379
      3.03966     -0.00288      9.03884        -0.000741      0.000174     -0.000387
      4.54780      1.49032      7.54620        -0.000742      0.000441     -0.000146
      6.04480      2.95025      6.07496         0.000158     -0.000108     -0.000122
      7.56552      4.37971      4.47693        -0.000166     -0.001211     -0.000348
      1.54576     -1.54806     13.52186        -0.000452     -0.000420      0.000310
      4.49051      1.52274     10.57885         0.000188      0.000269     -0.000811
     -1.50904     10.55777      1.53667        -0.000428      0.000740     -0.000231
      0.05917     12.01474      0.02496         0.000114      0.000303     -0.000079
     -4.49585      4.51701      7.50163        -0.000195      0.000509     -0.000182
     -3.04617      5.92901      6.00697         0.000552     -0.000570      0.000618
     -1.67743      7.64031      4.68583        -0.000669      0.001832      0.001473
     -0.10129      9.07182      3.09003         0.000188      0.001153     -0.000035
      4.50292     10.57193      1.49112         0.000454     -0.000469     -0.000184
     -1.54502      4.50907      7.54247         0.000199      0.000204      0.001208
     -0.05912      6.04805      6.05730        -0.000109      0.000010      0.000715
      1.44880      7.54841      4.52909         0.000286     -0.000006     -0.000002
      2.98261      9.05066      2.98939         0.000505      0.000235      0.000051
     -1.50833      1.55729     10.46028         0.000271     -0.000695     -0.000269
     -0.03377      3.01721      9.00623        -0.000103     -0.000046      0.000210
      2.91563      5.97666      6.00119        -0.000269     -0.000156      0.000235
      0.03933      0.01412     12.00138        -0.000042     -0.000893     -0.000725
      3.03191      3.01055      9.06079        -0.000130      0.000079      0.000343
      4.49574      4.42633      7.63968        -0.000518     -0.000081     -0.000293
      6.06504      2.96157     -0.05499        -0.000369     -0.001023     -0.000468
      2.97969      2.96672      3.05239        -0.000065     -0.000286     -0.000228
     -0.03638      6.05154      3.05001        -0.000847      0.000740      0.000508
      1.48135      4.51395      7.54557        -0.000046      0.000221      0.000323
      1.51248      1.49558     10.54774        -0.000028     -0.000610      0.000179
      9.09408      3.09622      0.04101        -0.000113      0.000099      0.000436
      6.01621      6.02870      6.09147         0.000036     -0.000226     -0.000768
 -----------------------------------------------------------------------------------
    total drift:                               -0.002165      0.002052      0.000993


--------------------------------------------------------------------------------------------------------



  FREE ENERGIE OF THE ION-ELECTRON SYSTEM (eV)
  ---------------------------------------------------
  free  energy   TOTEN  =     -1122.00302225 eV

  energy  without entropy=    -1121.97497773  energy(sigma->0) =    -1121.99367408
 


--------------------------------------------------------------------------------------------------------


    POTLOK:  cpu time      0.1928: real time      0.0879


--------------------------------------------------------------------------------------------------------




--------------------------------------------------------------------------------------------------------


  
 reached required accuracy - stopping structural energy minimisation
     LOOP+:  cpu time   3946.5206: real time   3944.1906
    4ORBIT:  cpu time      0.0000: real time      0.0000



 total charge

# of ion       s       p       d       tot
------------------------------------------
    1        0.420   6.317   4.209  10.946
    2        0.420   6.330   4.186  10.936
    3        0.424   6.331   4.211  10.966
    4        0.412   6.311   4.214  10.937
    5        0.410   6.324   4.214  10.948
    6        0.405   6.306   4.168  10.879
    7        0.374   6.289   2.157   8.820
    8        0.356   6.286   2.102   8.743
    9        0.347   6.290   2.104   8.742
   10        0.367   6.304   2.157   8.827
   11        0.363   6.279   2.167   8.808
   12        0.354   6.219   3.072   9.645
   13        0.364   6.235   3.062   9.661
   14        0.369   6.242   3.092   9.703
   15        0.359   6.242   3.058   9.658
   16        0.351   6.228   3.036   9.616
   17        0.356   6.229   3.064   9.649
   18        0.328   6.173   3.066   9.568
   19        0.346   6.225   3.034   9.605
   20        0.359   6.236   3.066   9.661
   21        0.360   6.238   3.071   9.668
   22        0.343   6.225   3.003   9.571
   23        0.363   6.225   3.104   9.692
   24        0.349   6.227   3.029   9.605
   25        0.349   6.227   3.028   9.604
   26        0.358   6.240   3.066   9.665
   27        0.355   6.244   3.056   9.654
   28        0.347   6.230   3.036   9.612
   29        0.350   6.214   3.066   9.630
   30        0.347   6.216   3.042   9.605
   31        0.356   6.238   3.081   9.675
   32        0.350   6.239   3.059   9.648
   33        0.353   6.237   3.059   9.649
   34        0.350   6.211   3.071   9.633
   35        0.354   6.225   3.066   9.645
   36        0.361   6.224   3.083   9.668
   37        0.340   6.222   2.999   9.561
   38        0.360   6.245   3.063   9.668
   39        0.358   6.241   3.071   9.670
   40        0.355   6.238   3.050   9.642
   41        0.342   6.222   3.047   9.611
   42        0.366   6.248   3.065   9.680
   43        0.360   6.242   3.082   9.684
   44        0.358   6.238   3.069   9.664
   45        0.352   6.237   3.050   9.639
   46        0.363   6.248   3.061   9.673
   47        0.355   6.229   3.076   9.660
   48        0.358   6.219   3.105   9.682
   49        0.359   6.238   3.086   9.682
   50        0.360   6.236   3.092   9.688
   51        0.355   6.235   3.060   9.649
   52        0.354   6.230   3.060   9.644
   53        0.356   6.240   3.059   9.655
   54        0.358   6.242   3.057   9.658
   55        0.360   6.223   3.126   9.709
   56        0.352   6.234   3.039   9.625
   57        0.353   6.236   3.069   9.658
   58        0.352   6.234   3.056   9.643
   59        0.360   6.238   3.087   9.686
   60        0.357   6.244   3.056   9.657
   61        0.348   6.240   3.035   9.623
   62        0.345   6.218   3.044   9.607
   63        0.370   6.238   3.078   9.685
   64        0.359   6.241   3.073   9.674
   65        0.356   6.240   3.090   9.686
   66        0.353   6.237   3.049   9.638
   67        0.352   6.228   3.042   9.622
   68        0.358   6.241   3.049   9.648
   69        0.354   6.244   3.050   9.649
   70        0.352   6.224   3.093   9.670
   71        0.358   6.224   3.091   9.673
   72        0.354   6.230   3.063   9.646
   73        0.357   6.242   3.057   9.656
   74        0.358   6.244   3.056   9.658
   75        0.352   6.234   3.048   9.634
   76        0.362   6.240   3.088   9.690
   77        0.355   6.242   3.065   9.661
   78        0.354   6.237   3.067   9.657
   79        0.356   6.232   3.064   9.652
   80        0.356   6.240   3.048   9.644
   81        0.359   6.245   3.070   9.674
   82        0.356   6.241   3.092   9.688
   83        0.352   6.233   3.068   9.654
   84        0.358   6.243   3.056   9.657
   85        0.357   6.244   3.036   9.637
   86        0.354   6.245   3.052   9.651
   87        0.346   6.230   3.045   9.621
   88        0.356   6.231   3.059   9.646
   89        0.355   6.241   3.070   9.667
   90        0.350   6.242   3.052   9.644
   91        0.347   6.242   3.039   9.629
   92        0.348   6.227   3.063   9.639
   93        0.351   6.221   3.085   9.658
   94        0.351   6.236   3.049   9.636
   95        0.356   6.243   3.069   9.668
   96        0.357   6.241   3.054   9.651
   97        0.353   6.230   3.060   9.643
   98        0.355   6.232   3.055   9.642
   99        0.352   6.228   3.044   9.625
  100        0.359   6.229   3.071   9.659
  101        0.356   6.234   3.060   9.649
  102        0.352   6.218   3.075   9.645
  103        0.358   6.236   3.064   9.658
  104        0.371   6.231   3.118   9.720
  105        0.337   6.209   3.024   9.570
  106        0.350   6.235   3.041   9.625
  107        0.356   6.237   3.056   9.649
  108        0.354   6.239   3.052   9.645
  109        0.349   6.246   3.039   9.634
  110        0.356   6.232   3.102   9.691
  111        0.356   6.226   3.085   9.667
  112        0.352   6.231   3.056   9.638
  113        0.354   6.247   3.085   9.686
  114        0.345   6.231   3.017   9.593
  115        0.354   6.225   3.111   9.689
  116        0.355   6.249   3.084   9.688
  117        0.352   6.221   3.085   9.658
  118        2.451   6.246   3.456  12.153
  119        2.458   6.256   3.494  12.208
  120        2.442   6.273   3.415  12.129
  121        2.446   6.273   3.455  12.174
  122        2.447   6.275   3.445  12.166
  123        2.259   5.974   1.881  10.114
  124        2.262   5.967   1.908  10.137
--------------------------------------------------
tot         58.624 773.363 381.5891213.576
 

 total amount of memory used by VASP MPI-rank0  7396245. kBytes
=======================================================================

   base      :      30000. kBytes
   nonl-proj :    1292066. kBytes
   fftplans  :      67629. kBytes
   grid      :     189621. kBytes
   one-center:       1928. kBytes
   wavefun   :    5815001. kBytes
 
  
  
 General timing and accounting informations for this job:
 ========================================================
  
                  Total CPU time used (sec):     4061.212
                            User time (sec):     3367.962
                          System time (sec):      693.250
                         Elapsed time (sec):     4058.760
  
                   Maximum memory used (kb):     9715848.
                   Average memory used (kb):          N/A
  
                          Minor page faults:      1438956
                          Major page faults:           10
                 Voluntary context switches:       741316
