128
Lattice="12.093483239 -0.001965245 -0.001402732 -0.001967216 12.088895931 0.017572922 -0.001397384 0.01757218 12.092468779" Properties=species:S:1:pos:R:3:forces:R:3 stress="5.8795015965820295e-05 -4.40650544287358e-06 1.1109886244072198e-06 -4.40650544287358e-06 4.8440352325979966e-05 -6.778278910709218e-06 1.1109886244072198e-06 -6.778278910709218e-06 4.9326646621855386e-05" free_energy=-1153.1935633 energy=-1153.17243036 pbc="T T T"
Cr       0.00181000       9.09117000      12.09134000       0.00079300      -0.00065100       0.00031200
Cr       4.58526000       4.52694000       1.49985000       0.00064700       0.00029800       0.00026400
Cr       4.54412000       7.56013000       1.48235000       0.00070100       0.00012700       0.00000300
Cr       9.10667000       3.15498000       5.93777000       0.00000500       0.00082300      -0.00058500
Ti      12.08949000       3.04725000       3.00379000       0.00003000       0.00104800      -0.00037300
Ti       1.48085000       7.54270000       4.49814000       0.00007000       0.00035000      -0.00094700
Ti       3.03146000       0.02390000       6.07688000       0.00010200       0.00057200       0.00032900
Ti       2.98387000       3.03973000       6.02480000      -0.00001600       0.00043500       0.00013500
Ti       3.04663000       9.13241000       6.13410000      -0.00001600       0.00047600      -0.00080000
Ti      10.59376000       1.56636000       7.49619000      -0.00100700      -0.00030500      -0.00058100
Ti       9.04305000       9.09018000       3.04693000       0.00077700       0.00035900       0.00039700
V        0.01152000       0.01228000       0.00642000       0.00010200      -0.00067100       0.00049500
V        1.56316000       1.49203000       1.47662000      -0.00017400       0.00030500      -0.00010900
V       12.07226000       0.04353000       3.03107000       0.00022100       0.00058800       0.00047200
V        1.46163000       1.44507000       4.47394000       0.00034000       0.00098600       0.00000300
V        0.04360000      12.07729000       6.03458000      -0.00082600       0.00036500      -0.00024000
V        1.40339000       1.52894000       7.61911000      -0.00065100      -0.00016900      -0.00046400
V        0.03239000      12.06465000       9.10966000      -0.00101300      -0.00048000      -0.00029900
V        1.54012000       1.49157000      10.60178000      -0.00064600      -0.00076800      -0.00039700
V        0.01364000       2.93683000       0.00750000      -0.00067900      -0.00106300      -0.00072800
V        1.67883000       4.47242000       1.54023000       0.00110300      -0.00019800      -0.00113700
V        1.50932000       4.67385000       4.52213000       0.00027200       0.00088400      -0.00058000
V        0.05862000       3.06133000       5.99435000      -0.00012900       0.00090000      -0.00009400
V        1.46966000       4.59886000       7.56454000      -0.00022700       0.00006900      -0.00018700
V        0.03986000       3.05867000       9.07681000      -0.00041100      -0.00023900      -0.00052900
V        1.64770000       4.44410000      10.49787000       0.00066700      -0.00139400      -0.00075500
V        1.54369000       7.60167000       1.52738000       0.00042400      -0.00105800      -0.00111800
V       12.03680000       6.00054000       3.00641000       0.00033700      -0.00062000      -0.00084000
V       12.05260000       6.04978000       6.09694000       0.00033100       0.00039400       0.00001100
V        1.48757000       7.53522000       7.61613000       0.00037000       0.00066700       0.00006100
V        0.00424000       6.06952000       9.03602000       0.00043700      -0.00041100      -0.00001300
V        1.57684000       7.63929000      10.57899000       0.00095200      -0.00073400       0.00033900
V       12.01435000       9.09781000       3.02752000       0.00018600      -0.00007400       0.00020300
V        1.44200000      10.59250000       4.49905000       0.00027500       0.00088600       0.00020200
V       12.07674000       9.08632000       6.10014000      -0.00031800       0.00046900       0.00003800
V        1.46787000      10.56589000       7.68876000      -0.00049800       0.00034800       0.00005300
V        0.01227000       9.05297000       9.09162000       0.00005200       0.00001900       0.00019600
V        1.50288000      10.55885000      10.62385000       0.00015600      -0.00057400       0.00074700
V        3.03400000      12.10442000      12.09586000      -0.00053700      -0.00083200      -0.00009300
V        4.52726000       1.50513000       1.49165000      -0.00023800       0.00055600      -0.00063500
V        3.02394000       0.02732000       3.01754000       0.00004300       0.00051500      -0.00015700
V        4.59446000       1.54251000       4.42087000      -0.00046400       0.00072800      -0.00014800
V        4.56235000       1.56996000       7.67361000      -0.00021500       0.00004600       0.00061200
V        3.00546000       0.01629000       9.10626000      -0.00027400      -0.00025500       0.00033700
V        4.52726000       1.52059000      10.63023000      -0.00002800      -0.00037300      -0.00050500
V        3.07846000       3.02260000       0.01628000       0.00014600      -0.00053700      -0.00078200
V        3.05639000       3.05028000       2.98523000       0.00040600       0.00096000      -0.00020100
V        4.57644000       4.55097000       4.50505000       0.00001200       0.00016900       0.00013300
V        4.55861000       4.58173000       7.56903000      -0.00066400       0.00018500      -0.00039000
V        3.01116000       3.02387000       9.05981000      -0.00021200      -0.00050800      -0.00079900
V        4.53981000       4.56518000      10.58396000       0.00007200      -0.00036400      -0.00013500
V        3.12747000       6.03512000       0.03302000       0.00099900      -0.00077400      -0.00007600
V        3.12004000       6.02778000       2.93703000       0.00064100       0.00006300      -0.00063600
V        3.05617000       6.02665000       6.07779000      -0.00026200       0.00041700      -0.00041500
V        4.57524000       7.51348000       7.63075000      -0.00038900       0.00038900      -0.00021800
V        3.02948000       6.05832000       9.07463000       0.00020500      -0.00039800      -0.00030200
V        4.54208000       7.56469000      10.58287000       0.00057400      -0.00066600       0.00023100
V        3.08000000       9.01067000       0.01613000       0.00059800      -0.00052800       0.00029100
V        4.55017000      10.59095000       1.50769000       0.00010300      -0.00001600      -0.00022400
V        3.10284000       9.07167000       2.97886000       0.00099500      -0.00041800       0.00019900
V        4.60635000      10.61915000       4.45102000       0.00001800       0.00091200      -0.00008900
V        4.63005000      10.60605000       7.71801000      -0.00001600       0.00031200       0.00058600
V        3.03424000       9.07377000       9.10457000       0.00004200       0.00011000       0.00052100
V        4.51317000      10.57156000      10.63974000       0.00015100      -0.00054500       0.00006600
V        6.03601000      12.07923000       0.04559000      -0.00028700      -0.00067600      -0.00018100
V        7.52416000       1.51029000       1.51513000      -0.00039700      -0.00015500      -0.00009400
V        6.05628000       0.02911000       3.00165000      -0.00031100       0.00030300      -0.00017700
V        7.56399000       1.56955000       4.48184000      -0.00056100       0.00009200       0.00000900
V        5.96526000      12.04679000       5.99287000      -0.00028100       0.00045000       0.00018000
V        5.99542000      12.04057000       9.19592000       0.00034000      -0.00038700       0.00066900
V        7.50516000       1.51135000      10.65885000      -0.00034900      -0.00069800       0.00048400
V        6.01889000       3.05241000       0.04592000      -0.00032400       0.00002200       0.00019600
V        7.53488000       4.54244000       1.51897000      -0.00023200       0.00046600       0.00055600
V        6.02219000       3.06972000       2.96474000      -0.00025200       0.00053600      -0.00001900
V        7.57817000       4.52156000       4.55452000       0.00007800       0.00049000       0.00022800
V        5.94926000       3.10833000       5.95585000      -0.00054000       0.00056500      -0.00025100
V        7.57213000       4.59288000       7.52959000      -0.00042500       0.00009500      -0.00022700
V        5.96811000       3.12567000       9.17669000      -0.00053400       0.00015400       0.00010700
V        7.50457000       4.57712000      10.58955000      -0.00055700      -0.00021700       0.00025300
V        6.01566000       6.05516000       0.04241000       0.00029500      -0.00028000       0.00064400
V        7.53699000       7.52751000       1.48871000       0.00119400       0.00076700       0.00064400
V        6.05341000       6.04145000       2.98249000       0.00110900       0.00027200       0.00039300
V        7.56695000       7.51017000       4.57891000       0.00058600       0.00116000       0.00069900
V        6.08244000       6.05304000       6.05883000       0.00002000      -0.00007900       0.00021400
V        7.56355000       7.54984000       7.57377000      -0.00039300      -0.00019400       0.00034700
V        6.04951000       6.07637000       9.07452000      -0.00022600      -0.00039700      -0.00035800
V        7.53953000       7.56683000      10.60548000       0.00029100      -0.00051600       0.00010600
V        6.03501000       9.02380000       0.04094000       0.00043100      -0.00062100       0.00024100
V        7.50941000      10.60448000       1.50293000       0.00040700      -0.00054500      -0.00014600
V        6.07435000       9.05299000       3.00228000       0.00035300       0.00053100       0.00039500
V        7.52417000      10.62856000       4.57619000      -0.00032200       0.00061100       0.00035800
V        6.08238000       9.07469000       6.08596000      -0.00010100       0.00051500       0.00036800
V        7.53492000      10.53118000       7.59188000      -0.00041100      -0.00008800       0.00060200
V        6.05605000       9.05263000       9.11615000       0.00027300      -0.00037900       0.00038300
V        7.55403000      10.56058000      10.64566000       0.00021100      -0.00106300       0.00030500
V        9.04142000      12.05991000       0.06691000       0.00044800      -0.00066600       0.00014200
V       10.54188000       1.46574000       1.51434000      -0.00035800       0.00010000      -0.00004300
V        9.06673000       0.00834000       2.99987000      -0.00000200       0.00016600       0.00014800
V       10.52797000       1.53322000       4.57227000      -0.00016100       0.00055600       0.00011400
V        9.07657000      11.99918000       5.92919000      -0.00103000       0.00044700      -0.00026700
V        9.08527000      11.97936000       9.21076000      -0.00084700      -0.00053800       0.00039100
V        9.00713000       3.01782000       0.02148000      -0.00088500      -0.00108300      -0.00018100
V       10.38111000       4.47553000       1.56295000      -0.00125100      -0.00084800      -0.00073900
V        9.04553000       3.01129000       2.99155000      -0.00063000       0.00019700       0.00031900
V       10.50301000       4.53649000       4.60253000       0.00002800       0.00081500      -0.00007900
V       10.56028000       4.54757000       7.51543000       0.00003400       0.00029000       0.00015000
V        9.08971000       3.16691000       9.16639000      -0.00057500       0.00025400      -0.00004900
V       10.47449000       4.49821000      10.47026000      -0.00165900      -0.00126700      -0.00043500
V        9.00263000       6.07739000      12.08749000       0.00006200      -0.00014600       0.00015700
V       10.60419000       7.63402000       1.50235000       0.00094500      -0.00019000      -0.00000100
V        9.03408000       6.06707000       3.03127000       0.00047600       0.00038900       0.00055300
V       10.60719000       7.52986000       4.58025000       0.00032100       0.00002400      -0.00010400
V        9.06212000       6.09016000       6.06263000       0.00041200      -0.00012400       0.00019200
V       10.58847000       7.54222000       7.56695000       0.00023800      -0.00004100       0.00034600
V        9.05858000       6.09033000       9.06243000       0.00004200      -0.00030200      -0.00021700
V       10.55064000       7.64692000      10.54794000       0.00018600      -0.00049200       0.00018900
V        9.04407000       9.04789000       0.03697000       0.00120000      -0.00029200       0.00023100
V       10.60894000      10.59110000       1.48975000       0.00068100      -0.00002200       0.00051700
V       10.60295000      10.62238000       4.54763000      -0.00016000       0.00095800       0.00037600
V        9.05419000       9.03590000       6.04290000      -0.00042200       0.00040300       0.00073700
V        9.05274000       9.03757000       9.10609000       0.00005200      -0.00055100       0.00039500
V       10.62304000      10.52508000      10.66791000       0.00025400      -0.00060100       0.00047100
W        1.51243000      10.56032000       1.50419000       0.00012200       0.00084400      -0.00132700
W        4.57086000       7.55208000       4.53199000      -0.00020000       0.00303600       0.00038900
W       10.56771000       1.49912000      10.58501000      -0.00108000      -0.00128300       0.00117400
W       10.56372000      10.57291000       7.58569000       0.00062700       0.00002800      -0.00004100
Zr      -0.00128000       5.95150000      12.06185000       0.00021800      -0.00153600      -0.00103900
Zr       7.56956000       1.57273000       7.53431000      -0.00061600      -0.00036300      -0.00005200
