128
Lattice="11.70768973389371 -0.002250307332512871 -0.0019466255880301723 -0.002249862950098287 11.710222439864033 0.0004896967677449288 -0.0019465675636481234 0.0004893274348689812 11.712193634487997" Properties=species:S:1:pos:R:3:energies:R:1:forces:R:3 energy=-1151.6598161944096 free_energy=-1151.6598161944096 stress="-0.0007590873992165381 0.0002284618014938267 -3.8066226381477736e-05 0.0002284618014938267 -0.00044257873510374903 -0.00012838662095070307 -3.8066226381477736e-05 -0.00012838662095070307 -0.00043615534592891185" pbc="T T T"
Cr       0.01234279       8.77896942       0.00492823      -7.55569885      -0.00040699       0.00087608       0.00032324
Cr       4.40918409       4.36670973       1.44712924      -7.54440878       0.00078537       0.00144303      -0.00138105
Cr       4.41858816       7.32245750       1.44116145      -7.77513381       0.00107827      -0.00168038      -0.00259204
Cr       8.76005406       2.94719723       5.83888476      -7.25626583       0.00001519      -0.00010416       0.00044426
Ti      -0.00129700       2.91950890       2.92635458      -7.97591674       0.00081158       0.00058452      -0.00003208
Ti       1.46067588       7.32536288       4.39979017      -8.34280948       0.00048178      -0.00042480      -0.00106082
Ti       2.92037676      -0.00171302       5.85247983      -7.89691411      -0.00031903       0.00006655      -0.00000267
Ti       2.92619172       2.94825691       5.85408862      -7.91418777      -0.00008467      -0.00007587      -0.00010115
Ti       2.93516339       8.76068621       5.86664068      -8.42237625      -0.00003425       0.00018683       0.00011054
Ti      10.27298904       1.46407160       7.31736765      -8.65788121      -0.00020453      -0.00044208      -0.00019776
Ti       8.77079296       8.78637427       2.93480391      -7.96426605      -0.00039896      -0.00023230      -0.00077190
V       -0.00297248      -0.00389541       0.00425596      -9.94576964       0.00016144      -0.00042246      -0.00023076
V        1.46302714       1.47262527       1.45876623      -9.32017151      -0.00022059      -0.00001632       0.00016806
V       -0.00556084       0.00355699       2.92408044      -9.43470535       0.00096641      -0.00069523       0.00009473
V        1.46690909       1.45893295       4.38901851      -9.00518526      -0.00027045       0.00017038      -0.00022461
V        0.01815994      -0.01835589       5.84025997      -9.41677475      -0.00012976      -0.00050265       0.00006619
V        1.46216620       1.46109980       7.32011270      -9.05981493       0.00012328       0.00005121      -0.00037331
V        0.01119305      -0.01310335       8.80154665      -9.81635009      -0.00008002      -0.00061529      -0.00017589
V        1.47504303       1.46877011      10.25123795      -9.28882902      -0.00016392       0.00066704      -0.00012483
V        0.00122735       2.91227438       0.00239629      -9.31617790      -0.00008204       0.00019644       0.00015917
V        1.46427008       4.40530266       1.45545185      -9.17493464      -0.00091868      -0.00050581       0.00042780
V        1.47390728       4.40645758       4.39622946      -9.00985161      -0.00031311      -0.00000805      -0.00048064
V        0.01129835       2.93806814       5.84582139      -9.04184069       0.00012460       0.00006150       0.00021577
V        1.46887125       4.39293000       7.32279595      -8.96034061       0.00022948      -0.00007007       0.00011327
V        0.00791003       2.93270330       8.79781631      -9.40207673      -0.00011494       0.00081396       0.00070257
V        1.45414906       4.39707673      10.25424451      -9.09010674       0.00010486      -0.00004887      -0.00018841
V        1.48339542       7.29779209       1.49273820      -9.58087302       0.00048005       0.00009150       0.00007520
V       -0.00393039       5.84806033       2.95482396      -8.97989562       0.00001509       0.00002253       0.00026348
V       -0.00519770       5.86232679       5.86273376      -9.03103222      -0.00010675      -0.00042599      -0.00001629
V        1.46977906       7.32373229       7.30931202      -9.06509835       0.00041176      -0.00008146      -0.00030803
V       -0.00595570       5.85543546       8.76291329      -8.98458693      -0.00058512      -0.00035785       0.00050935
V        1.46915768       7.30247723      10.24311838      -9.16022711       0.00048956      -0.00000200       0.00026268
V       -0.00386792       8.80011665       2.93997941      -9.51233007       0.00024122       0.00033496      -0.00003625
V        1.46602510      10.24109060       4.40602924      -9.35728122       0.00000761       0.00046780      -0.00043604
V        0.00187597       8.78034431       5.85380939      -9.38840079      -0.00013916       0.00060028      -0.00001445
V        1.46690142      10.24410804       7.31398061      -9.25607537      -0.00040699       0.00012661      -0.00001109
V       -0.00826634       8.79169988       8.76564250      -9.51850393      -0.00030596       0.00030079       0.00040773
V        1.47113374      10.25699393      10.22990544      -9.40851303       0.00005912       0.00012782      -0.00015144
V        2.92018599       0.00164146      -0.00440754      -9.40451224       0.00021320       0.00024370      -0.00060704
V        4.39302593       1.44513947       1.46030989      -9.12171239       0.00075004      -0.00008128      -0.00092107
V        2.91424002       0.00373932       2.93018736      -9.39288808      -0.00085375       0.00023467       0.00023654
V        4.37894064       1.45660860       4.38855845      -9.00343581       0.00027955       0.00023982       0.00031622
V        4.35142037       1.45864938       7.31881717      -8.95064060       0.00027285       0.00017092       0.00014047
V        2.92412058      -0.00338404       8.78217871      -8.94334494       0.00029238      -0.00035810       0.00076818
V        4.38034458       1.45613471      10.25350784      -8.99185053       0.00087198       0.00016594       0.00001776
V        2.93285345       2.90747305      -0.01079104      -9.05494759       0.00055941      -0.00015402      -0.00075476
V        2.92024709       2.91697875       2.92731308      -9.03217316      -0.00061365      -0.00044796       0.00025781
V        4.39083033       4.38473750       4.39069401      -9.39824365      -0.00010266       0.00069617       0.00035845
V        4.38084377       4.40440496       7.31649021      -9.00616320       0.00030792       0.00008311       0.00027182
V        2.92191201       2.92619161       8.78519890      -8.92741899       0.00075385      -0.00000493       0.00085813
V        4.39167492       4.38348853      10.23438641      -9.08598657       0.00054516       0.00061322      -0.00023962
V        2.94491669       5.84376521      -0.01639661      -9.16087906       0.00217738       0.00024178      -0.00031267
V        2.93846001       5.86092974       2.95977807      -9.62036371       0.00006372       0.00026823       0.00045946
V        2.94398454       5.87507607       5.85845613      -9.37114628       0.00045143      -0.00006896      -0.00034610
V        4.39155580       7.32072916       7.34087607      -9.23823169       0.00048497      -0.00052419       0.00030540
V        2.92820782       5.85162015       8.77660538      -8.96275061       0.00072036      -0.00038639       0.00044006
V        4.39501641       7.32340209      10.23347445      -9.09794656       0.00032781      -0.00077104       0.00115769
V        2.92841057       8.81034081      -0.01211925      -9.58836773       0.00065642      -0.00009702      -0.00118891
V        4.40803538      10.25668351       1.47187912      -9.39541465       0.00092422      -0.00018715      -0.00073206
V        2.93552160       8.79442736       2.94862647      -9.95073242      -0.00106807      -0.00029454       0.00070086
V        4.38651888      10.25636100       4.39353831      -9.34534530       0.00026572       0.00002123       0.00019612
V        4.37081356      10.23177896       7.30845153      -9.02445428       0.00070466       0.00036707      -0.00000059
V        2.91868290       8.78931028       8.78355669      -8.97786190       0.00033561       0.00024959       0.00077725
V        4.39172030      10.25018052      10.24654205      -9.04352339       0.00094026       0.00009120       0.00020077
V        5.85384926      -0.00159734      -0.00297271      -8.91791468      -0.00043144      -0.00006729       0.00009637
V        7.31428419       1.45521846       1.45856158      -9.06258585      -0.00049798       0.00028731      -0.00077652
V        5.85589343      -0.00373419       2.92713089      -8.94839017       0.00064526       0.00020736      -0.00013125
V        7.30471074       1.45897015       4.35718804      -9.03113684      -0.00052574      -0.00007997       0.00031663
V        5.85183979       0.00264306       5.86652998      -9.05095348       0.00000659       0.00020798       0.00041668
V        5.85944713       0.01067074       8.77027251      -9.00371088       0.00004762      -0.00014580      -0.00002911
V        7.30090559       1.46077139      10.27867103      -9.20358129      -0.00075797       0.00022680      -0.00025805
V        5.85387400       2.92210612      -0.00313555      -9.03065008      -0.00032171       0.00010716       0.00001349
V        7.31771306       4.38758793       1.46360026      -9.09299619       0.00020764       0.00011168      -0.00065874
V        5.85482182       2.92673986       2.92049789      -9.09203547       0.00026472      -0.00073211      -0.00051498
V        7.30322218       4.41155421       4.37803135      -9.15120539      -0.00003664       0.00061431      -0.00039055
V        5.85050842       2.92268812       5.86212565      -9.11827536      -0.00022768      -0.00022827       0.00111333
V        7.30683277       4.42774742       7.31826255      -9.03487626      -0.00046635       0.00056954       0.00061276
V        5.85715986       2.91024153       8.77381741      -9.05102226       0.00009264       0.00022815       0.00020923
V        7.31596588       4.39588104      10.25072065      -9.04364797      -0.00058067       0.00001398      -0.00014407
V        5.86954418       5.83659616      -0.00932863      -9.14670332      -0.00155386       0.00089625       0.00092340
V        7.32104011       7.32007694       1.47278808      -9.16506692      -0.00065461      -0.00008266      -0.00094670
V        5.85407884       5.85601324       2.94699067      -9.58763502       0.00006473      -0.00003890      -0.00032615
V        7.32548879       7.32180875       4.39215065      -9.25357473      -0.00009354      -0.00019855      -0.00025804
V        5.84269069       5.87168959       5.84239674      -9.45601521      -0.00067945       0.00046540       0.00055861
V        7.30695600       7.32215947       7.31561253      -9.07707500      -0.00020602      -0.00054315       0.00042772
V        5.85652379       5.85651878       8.78062307      -8.91763478       0.00041104      -0.00038026       0.00042037
V        7.31189264       7.31770806      10.23867998      -8.98199170      -0.00024779      -0.00019764      -0.00006598
V        5.86275260       8.78977001      -0.01413461      -9.03692630       0.00015406      -0.00067573       0.00012195
V        7.31356197      10.24670568       1.47285659      -8.98976766      -0.00034411       0.00013646      -0.00114226
V        5.85527992       8.77890626       2.95010152      -9.46776551       0.00064052       0.00042521      -0.00033500
V        7.30990149      10.22941496       4.38227430      -9.06225023      -0.00046328      -0.00011271      -0.00011684
V        5.82738124       8.76168879       5.84313829      -9.40470372      -0.00014355      -0.00064582       0.00023685
V        7.29664465      10.21267434       7.31659451      -9.20462722      -0.00078511       0.00039365       0.00060076
V        5.85365537       8.78309851       8.78095788      -8.93585161       0.00021471       0.00039601       0.00035098
V        7.30591524      10.23779703      10.25283085      -9.05075337      -0.00070009      -0.00000789      -0.00012749
V        8.78325200      -0.00272178       0.00174055      -9.41903367      -0.00056467      -0.00046289       0.00064105
V       10.23737294       1.45820285       1.46767045      -9.26937416       0.00036070      -0.00026420      -0.00023185
V        8.78490966      -0.00676959       2.92264523      -8.97394182      -0.00029755       0.00010177      -0.00040026
V       10.24873382       1.45281148       4.38214123      -9.10916044       0.00006070       0.00022791       0.00008588
V        8.76226071      -0.01717001       5.85010116      -9.53866541       0.00018459       0.00004146       0.00046681
V        8.75961683      -0.00939947       8.79127257      -9.82896165      -0.00089103       0.00007696       0.00024859
V        8.77541254       2.91424220      -0.00399818      -9.37341017      -0.00037330       0.00056652      -0.00013606
V       10.24977834       4.39705243       1.44811217      -9.03800316      -0.00020391       0.00012337      -0.00028722
V        8.78146216       2.92700007       2.91806538      -9.03175289      -0.00041212       0.00004088      -0.00045505
V       10.23825372       4.39749895       4.38971034      -9.05368888       0.00056059       0.00019786      -0.00012230
V       10.24708446       4.40427118       7.31981444      -9.09873110      -0.00038594       0.00004577      -0.00022935
V        8.76348387       2.93324330       8.79815054      -9.51933751      -0.00036858       0.00066195       0.00032136
V       10.24827949       4.40342515      10.25531825      -9.26084627       0.00013345      -0.00018974       0.00006119
V        8.76313914       5.84947021      -0.00762637      -8.99427443      -0.00031201       0.00047001      -0.00011079
V       10.23452216       7.30510796       1.47399538      -9.14037819      -0.00067437      -0.00036777      -0.00050594
V        8.77482810       5.85513016       2.93710246      -8.98707869       0.00015531       0.00001272      -0.00058282
V       10.23609769       7.32844713       4.39607193      -8.98060090      -0.00008853      -0.00044938      -0.00018336
V        8.77433529       5.86738727       5.85330400      -9.06599051      -0.00023073      -0.00005201       0.00081632
V       10.23521789       7.31289255       7.31755209      -9.22871625      -0.00024361      -0.00037538       0.00019770
V        8.77272996       5.86094893       8.77467254      -8.98583903      -0.00053605      -0.00044220       0.00019357
V       10.23413158       7.30457185      10.23324606      -9.12967265      -0.00014111       0.00023369       0.00025608
V        8.76918673       8.78992139      -0.00319604      -9.04360640      -0.00002030      -0.00082764       0.00041823
V       10.21844322      10.25197516       1.47807382      -9.37146769       0.00026657      -0.00013353      -0.00030089
V       10.23853928      10.24142685       4.38740914      -9.30500465       0.00055955       0.00045874       0.00019449
V        8.77324470       8.77850432       5.85767793      -9.32333547      -0.00010773      -0.00033542       0.00052791
V        8.77417585       8.77944417       8.77748869      -9.39876904      -0.00087285      -0.00022975       0.00041942
V       10.22256774      10.24763111      10.23814213      -9.64749223       0.00058665      -0.00016265       0.00018997
W        1.46992048      10.26487970       1.47905224      -6.85924901      -0.00126616       0.00034361      -0.00031099
W        4.39983354       7.31550401       4.42242270      -6.68196850       0.00041188      -0.00070094       0.00058524
W       10.24701309       1.46307872      10.25892218      -6.69931993       0.00060793      -0.00005380       0.00044881
W       10.24646300      10.23430242       7.31727712      -6.70007808       0.00088948       0.00076600      -0.00005874
Zr      -0.00107160       5.85223155       0.00028460      -8.00326668      -0.00074571      -0.00084161      -0.00060118
Zr       7.27987615       1.44627381       7.33644348      -8.10553497      -0.00063466      -0.00042003       0.00045408
