124
Lattice="-7.545998088651924 7.546311014689217 7.54745406786806 7.5469299715897655 -7.547915183884702 7.549990181031429 7.5460172019474445 7.547934301337258 -7.5490582840653" Properties=species:S:1:pos:R:3:forces:R:3 energy=-1126.9599084947515 free_energy=-1126.9599084947515 stress="0.005831210500233614 -3.635320643992241e-05 -0.000242114476133249 -3.635320643992241e-05 0.0058632402107798 0.0008125126084778792 -0.000242114476133249 0.0008125126084778792 0.0055850803459195015" pbc="T T T"
Cr       3.06343599      -2.99008129       3.02730201       0.00143574      -0.00258925       0.00133285
Cr       3.04036189       9.03310767      -2.96244854       0.00072825       0.00082992       0.00030556
Cr       4.50617058       7.57918890      -1.52333277       0.00213047      -0.00034213      -0.00108211
Cr       6.05212875       2.96283274       3.06484473       0.00099416      -0.00032264      -0.00098453
Cr       1.48883456       4.48726098       4.50841142      -0.00090283       0.00132468       0.00108531
Cr      -4.51314617       7.54608182       4.57073208      -0.00228170       0.00181314       0.00129490
Ti       2.84512692       0.17217686       0.22992897       0.00080957       0.00053972       0.00053480
Ti       4.58900566      -4.51525216       7.54926615       0.00026152      -0.00052395       0.00013185
Ti       4.52416434       4.50420617       1.51002994       0.00159491       0.00156534      -0.00084453
Ti       1.54616851      10.54353490       1.50019602      -0.00027801       0.00019099       0.00001100
Ti       4.48991293       7.58539679       4.41605335       0.00009340      -0.00169205      -0.00127487
V        0.12444637       0.13032286       0.17781107      -0.00683542      -0.00382030      -0.00343540
V        1.53406099       1.50339109      -1.64888321       0.00006807      -0.00321531       0.00477006
V        3.05544876       3.06625977      -3.01073284       0.00104638      -0.00043431      -0.00103659
V        4.52264543       4.53535491      -4.51678076       0.00072345       0.00092758       0.00029666
V        6.06074719       6.04280039      -5.97664549      -0.00045972      -0.00102679      -0.00236549
V        1.53356128      -1.70373589       1.57738542      -0.00096231       0.00723843      -0.00321091
V        4.47499429       1.49878903      -1.53042778       0.00072504      -0.00041994      -0.00135568
V        6.03232529       3.03224066      -3.08034631      -0.00103527       0.00070267       0.00124459
V        7.49454026       4.54106345      -4.49370671      -0.00099559       0.00041739       0.00178789
V        4.48304510      -1.53446593       1.57702312       0.00200965       0.00031169      -0.00021802
V        6.00771875      -0.04950889       0.02235589      -0.00024649       0.00089396       0.00012990
V        7.50164577       1.45616962      -1.56693989      -0.00058258       0.00077900      -0.00008598
V        9.06693212       3.05443348      -3.09313673       0.00069931      -0.00015182       0.00198845
V        4.51379713      -4.49362867       4.48113096       0.00063822       0.00057018       0.00189998
V        6.06035369      -3.03408600       3.00569097      -0.00110081       0.00233504       0.00008137
V        7.50969685      -1.50309301       1.53191999      -0.00005745      -0.00001717       0.00065308
V        9.01506356      -0.02759477       0.01808056      -0.00045329       0.00003297      -0.00115056
V       10.49917690       1.43245294      -1.60208833       0.00019494      -0.00206992       0.00054161
V        6.16854544      -5.95827139       6.03388231      -0.00147591      -0.00178028      -0.00139863
V        7.54954856      -4.47762041       4.50619142      -0.00029532      -0.00035936       0.00156326
V        9.06534144      -2.98519382       3.05603416       0.00042087      -0.00017741      -0.00212533
V       10.56978690      -1.51392619       1.54694160      -0.00016088       0.00015064      -0.00082019
V       11.99960322       0.06665561       0.09863148      -0.00043717      -0.00155431      -0.00150523
V       -1.56264007       1.47004958       1.57556420       0.00320490      -0.00118742      -0.00095492
V        0.09784754       2.94662148       0.06078466       0.00260445      -0.00074456       0.00433583
V        1.53483443       4.53294890      -1.52211891       0.00012432      -0.00050067      -0.00001410
V        3.04054940       6.06606959      -2.98021214       0.00070617      -0.00058622       0.00036959
V        4.52363862       7.55175448      -4.47373772       0.00024750       0.00001150      -0.00097001
V        0.09753850       0.05479360       2.94110803       0.00340226       0.00337949      -0.00048039
V        2.91852786       2.95096417      -0.01460199      -0.00026595       0.00324461      -0.00070599
V        4.50659709       4.53185327      -1.51916578      -0.00188541      -0.00040746       0.00033877
V        5.99780328       6.09804602      -3.00154399       0.00264714       0.00167532      -0.00249501
V        1.51818036      -1.49885469       4.48538313       0.00011287       0.00015211       0.00077793
V        2.96146638       0.01569601       3.00973667      -0.00035343      -0.00395012       0.00350110
V        4.65943171       1.50973604       1.56289110      -0.00483327      -0.00111730      -0.00045716
V        7.49401098       4.63221975      -1.58989764      -0.00002970       0.00112832      -0.00059894
V        3.08815834      -2.84389114       5.93166381       0.00152412       0.00077821      -0.00097703
V        4.52539695      -1.52373173       4.50470970      -0.00208703       0.00048757      -0.00044234
V        6.01764239      -0.05297585       3.05866280       0.00058835       0.00044683      -0.00040740
V        7.50180990       1.45843737       1.59874859      -0.00052481      -0.00017255       0.00012642
V        6.10215422      -2.99993239       6.01672328       0.00212709      -0.00254132       0.00131750
V        7.58483547      -1.49622862       4.53881741      -0.00112343      -0.00009110       0.00130310
V        9.05575048      -0.01174713       3.07628832       0.00045590       0.00092819      -0.00005324
V       10.57465488       1.37959212       1.64877014       0.00209477      -0.00058782       0.00007590
V       -3.00064862       2.99759200       3.08329186      -0.00042659      -0.00013008       0.00216486
V       -1.46246925       4.51584019       1.54172710       0.00031875      -0.00110470       0.00039329
V        0.01032826       6.04050945      -0.02819970      -0.00053173      -0.00009358      -0.00069455
V        1.52248999       7.57473185      -1.53088672       0.00042467      -0.00042873      -0.00049372
V       -1.50768430       1.51765334       4.53291983      -0.00076302       0.00128022      -0.00026649
V        0.02317538       2.95133404       2.97313000      -0.00144963       0.00194232       0.00075501
V        1.49902861       4.58494137       1.45756054       0.00112663      -0.00197654      -0.00109401
V        3.02452401       6.08593419      -0.06956464       0.00047236       0.00064319      -0.00107521
V       -0.00205376       0.03332960       6.00471998      -0.00041026      -0.00053462       0.00135815
V        1.48232354       1.47732809       4.59235944      -0.00025075       0.00033603      -0.00065326
V        6.02282716       6.12871433      -0.06544690      -0.00099086      -0.00055956      -0.00089767
V        1.51501559      -1.42278359       7.53019100       0.00067526      -0.00040668      -0.00097509
V        3.03454143       0.00631090       6.01656773       0.00024461      -0.00162848       0.00088432
V        4.54086866       1.49474144       4.51404441       0.00167336      -0.00112203       0.00189026
V        7.48460597       4.57687357       1.57408176      -0.00033649       0.00085704      -0.00043746
V        3.11581124      -2.86517110       9.24620831       0.00100785      -0.00006330       0.00183054
V        4.56466369      -1.50128194       7.56319588       0.00131778      -0.00148798      -0.00035579
V        6.05340443      -0.01350405       6.05234912      -0.00075082      -0.00153490      -0.00018292
V        7.52302732       1.51158413       4.53156894      -0.00025912      -0.00055157       0.00088039
V        9.10826825       2.97233546       3.10587056      -0.00065448       0.00065086      -0.00013024
V       -4.52667311       4.51866706       4.57464092       0.00038295       0.00168692       0.00204710
V       -3.04391675       6.07133303       3.08339214       0.00141552      -0.00072898       0.00116964
V       -1.52440059       7.56339413       1.48615240       0.00008250      -0.00002799      -0.00028203
V       -0.02512731       9.02585210      -0.05096971       0.00016817      -0.00004291       0.00052928
V        1.53680379      10.53269889      -1.53849625       0.00023280       0.00022412       0.00073152
V       -3.02961494       3.01939434       6.02199185       0.00056325       0.00088306      -0.00056055
V       -1.54711833       4.48982438       4.55564560      -0.00028865      -0.00138474       0.00030813
V        1.50444588       7.56155271       1.47065246      -0.00051823      -0.00095836      -0.00030004
V        3.09497555       8.98847963      -0.05594691       0.00032564       0.00111158      -0.00082080
V       -1.54960779       1.51187629       7.49327258       0.00057901       0.00041284      -0.00018304
V       -0.01466412       3.02878825       5.97567001      -0.00011000       0.00071306       0.00168529
V        2.93789457       5.95635587       3.04629266      -0.00072091       0.00018517      -0.00113970
V        4.52446769       7.53428731       1.49443161       0.00115053       0.00035512      -0.00035262
V       -0.00860079       0.01427699       8.99336510       0.00020161      -0.00009376       0.00088269
V        1.49294173       1.48245689       7.51141505       0.00043744       0.00098629      -0.00115492
V        3.01617302       3.00214351       5.99269799      -0.00056971      -0.00043364       0.00113939
V        4.51309166       4.40815446       4.43754743      -0.00179426      -0.00401034      -0.00335462
V        6.13066264       6.03169583       2.95083325      -0.00172310      -0.00183150      -0.00180004
V        1.53889050      -1.48866498      10.61409335      -0.00050170      -0.00011783       0.00014877
V        3.04974290      -0.00345149       9.02236723       0.00140210       0.00036909       0.00064199
V        4.53912828       1.49610722       7.54359447       0.00118725      -0.00019917      -0.00069948
V        6.02987097       2.96709268       6.05939897      -0.00026029      -0.00184270      -0.00067630
V        7.59506654       4.40136120       4.46298620      -0.00223117       0.00063944       0.00070194
V       -5.98445971       6.06651787       6.04594155      -0.00043307      -0.00106647      -0.00092936
V       -3.01432399       9.04673660       3.03366613       0.00064473       0.00140176       0.00044086
V       -1.51510294      10.54922242       1.50994519       0.00047110      -0.00003303       0.00104304
V        0.04378398      12.02028554       0.00562235      -0.00081690      -0.00055736      -0.00083099
V       -4.48101469       4.56199093       7.49652412       0.00072121      -0.00020636      -0.00051442
V       -3.06431068       6.07034276       6.05350387      -0.00204224       0.00241256       0.00197912
V       -1.55312879       7.53916026       4.55121939      -0.00130863       0.00057829       0.00262116
V       -0.05678223       9.04815265       3.02465797       0.00000013       0.00035437       0.00135570
V       -3.02317658       3.04168363       9.03731714       0.00022721       0.00104822       0.00068662
V       -1.56530059       4.53550378       7.53934663      -0.00136153       0.00186636       0.00010941
V       -0.03731440       6.01766878       6.04726271      -0.00204617      -0.00041323      -0.00110962
V        1.48670920       7.54163330       4.53136631      -0.00008398      -0.00052241       0.00032522
V        3.00735760       9.04756658       2.98085666       0.00070953       0.00146777       0.00030824
V       -1.49177620       1.58449498      10.47295284       0.00076584       0.00075316       0.00084827
V       -0.03694275       3.03655348       9.00741834       0.00018647       0.00037151       0.00191021
V        2.93480355       5.97305883       6.01592064      -0.00026120      -0.00057107      -0.00258002
V        0.06276225       0.04179337      12.02271427      -0.00127221      -0.00096674      -0.00256756
V        3.04520325       3.01782290       9.05090822      -0.00044622      -0.00059085       0.00077856
V        4.49575668       4.43776005       7.62937138       0.00023399       0.00048847      -0.00249951
W        6.04735740       3.00504648      -0.05130993       0.00098010      -0.00022339      -0.00107596
W        2.89133570       2.90075129       2.94731268       0.00214752       0.00210327      -0.00133898
W       -0.01657797       6.00838150       3.03630625      -0.00082614       0.00079041       0.00052129
W        1.48217356       4.51333454       7.54864745      -0.00043751       0.00046309      -0.00037043
W        1.54062652       1.52091180      10.53521019       0.00028715       0.00042471      -0.00007351
Zr       9.12977036       3.08901762       0.02423792       0.00125945       0.00048233      -0.00032312
Zr       6.05390772       6.04070631       6.09444320      -0.00189692      -0.00030908      -0.00062482
