124
Lattice="12.66565832686254 -0.002298327060188814 0.00834880377590093 -4.224032352002198 11.93626782835652 -0.005927311628687681 -4.2140114367360075 -5.969726805641839 10.344027844722934" Properties=species:S:1:pos:R:3:energies:R:1:forces:R:3 energy=-1096.7488496976905 free_energy=-1096.7488496976905 stress="-0.0165793279247652 -0.002444432193130011 0.00020707131331469957 -0.002444432193130011 -0.019746774872646745 -0.0004217817554308353 0.00020707131331469957 -0.0004217817554308353 -0.014974470367060648" pbc="T T T"
V        0.04962074       0.00628778       0.03358690      -9.01292002       0.00256504      -0.03644917      -0.04377251
V       -0.86517459      -1.18751356       2.09000796      -9.10421937       0.01028026      -0.02460278      -0.02820818
V       10.99493587      -2.42791679       4.17701818      -8.82641471       0.01819114      -0.00406306      -0.00242589
V       -6.76923512       8.35429755       6.23949229      -9.08925628       0.00741711       0.00658335      -0.00927017
V       -3.41626568      -4.75316775       8.29876359      -9.09465501      -0.01062649       0.00851010      -0.02681739
V       -1.69295887       1.21937452       2.03140767      -9.02304935       0.05647815      -0.01223160      -0.13417050
V       -2.82351437      -0.37746252       4.17062076      -8.04984939      -0.04571972      -0.07898862      -0.00400081
V       -3.39543409      -1.19316402       6.28148748      -8.94679587       0.01833020       0.01933193      -0.01587435
V       -2.55940040       3.63043307       2.10957145      -9.31215216       0.03053340       0.00497404      -0.01242544
V       -3.41524711       2.42604705       4.15739751      -8.96522890       0.09854983      -0.02517154      -0.03766305
V       -4.22865412       1.17582823       6.20095919      -8.77500736       0.06279594       0.01763949      -0.04068117
V       -5.12492296       0.08241087       8.30950918      -9.10734879       0.00716066       0.01696875      -0.01369669
V       -2.53966471       7.20079313      -0.01750326      -8.86245096      -0.00173593      -0.00565711       0.00492098
V       -3.40220292       6.00122388       2.09102264      -9.12208623      -0.00169517      -0.01006087       0.00058000
V       -4.25472832       4.78456683       4.17725228      -8.92840694       0.00751836      -0.00373627      -0.00441575
V       -5.11853342       3.57443031       6.29168302      -8.74599694       0.00809268      -0.00436190      -0.00538898
V       -3.45779360       9.54055660       0.05920618      -8.57144497      -0.01362320      -0.02474200      -0.00074687
V        8.41549472       8.36679972       2.10678738      -8.91162377      -0.00647521      -0.01735171       0.00334629
V        7.58252670       7.17753884       4.17369387      -8.91914976      -0.00244498      -0.00115391       0.00511611
V       -5.92404737       5.97079543       6.25799827      -8.94214631       0.00200080      -0.00175087       0.00219767
V       -6.72494585       4.74771618       8.34429740      -8.63856418       0.00767614       0.01456366       0.01686036
V       -1.63348385       1.19485644       4.07975391      -7.55480697      -0.70405725      -0.14245976       0.46476981
V        1.70361455      -1.16431374       2.06002238      -8.73641589       0.02269114      -0.05605573      -0.01980908
V       -3.39733961       9.58768061       4.16422465      -8.91511412       0.00669263      -0.00365101      -0.00018099
V       -0.02148553      -3.56411943       6.25869712      -8.95716012       0.00083316      -0.00052711       0.00286596
V       -0.88046717      -4.76773621       8.35644966      -8.78795658       0.00136077      -0.00989539       0.00248740
V        1.70779908       2.36894752       0.03050566      -9.02755970       0.04260291      -0.00553379      -0.06002949
V        0.89633597       1.19628090       2.09130985      -8.87715342      -0.48459377       0.37716484       0.61738667
V        0.04048909      -0.02626344       4.18230775      -8.76790103       0.11767250      -0.05347228      -0.05714318
V       -0.87350784      -1.19957445       6.25683981      -9.02179229       0.01029540       0.01802173      -0.00941619
V       -1.70689991      -2.38176446       8.32140340      -9.08556838       0.01286635       0.01535210      -0.02095595
V        0.82509294       4.78869596       0.02979517      -9.23887749       0.00661577       0.00714384      -0.01559663
V       -0.00076830       3.62609103       2.05613732      -9.08902516       0.06031163      -0.04020709      -0.07231023
V       -0.56964928       2.84129492       4.19712230      -7.98739561       0.15379755       0.13774020      -0.04213279
V       -1.69656747       1.21383797       6.25193721      -8.94123016       0.05243016       0.00973995      -0.09923376
V       -2.55192868       0.03401437       8.30701652      -9.11626209       0.01234905       0.01087743      -0.00864973
V       -0.00688100       7.18100464       0.06206672      -8.91197096      -0.00217166       0.00940782      -0.01115779
V       -0.86950505       6.01590697       2.09180374      -9.05289954       0.01015103      -0.01070688      -0.01151537
V       -1.75393010       4.85906131       4.16794490      -8.86142704       0.01109671      -0.00279550      -0.02273482
V       -2.56104810       3.61013960       6.24894327      -8.97688115       0.03080022      -0.02200927      -0.03911714
V       -3.46840931       2.41964270       8.31220954      -8.74616847       0.00729858      -0.00365428      -0.01240265
V       -5.13028710       3.63696140      10.32063821      -8.60596087      -0.00036390       0.01970502      -0.00146373
V       -1.71708449       8.39136875       2.07611705      -8.99176081       0.00324340      -0.01685238      -0.00406275
V       -2.56492788       7.19500116       4.16936426      -8.93582899      -0.00801232      -0.01233285       0.00174015
V       -3.39982781       6.00284075       6.23523558      -8.90958788      -0.00329884      -0.00874525       0.00022117
V       -4.18100487       4.82878561       8.27482644      -8.55560097       0.00432640      -0.01695763      -0.01497046
V        0.76904423      -5.93917157      10.39302510      -8.74382456      -0.01022119      -0.00640313      -0.00620808
V       -0.00628004      10.74177856       2.12719408      -8.74454277       0.03316205      -0.02237788       0.01379432
V       -0.87320327       9.56757108       4.17593879      -8.93278749       0.00986687      -0.01548410       0.01297673
V       -1.71710165       8.38535801       6.23938391      -8.95358079      -0.00574202      -0.01102676       0.00363235
V        1.66223287      -4.74194131       8.32372590      -9.00829819      -0.00872174      -0.00741982      -0.00011494
V        4.23472125       2.45745434       0.03860514      -8.75981117       0.02898017       0.01895436      -0.01186600
V        3.37009177       1.19596579       2.06761523      -8.74274210       0.06453831      -0.02147186      -0.03227746
V        2.49839791       0.01502245       4.16699259      -8.93158837       0.02511345      -0.01219297      -0.01688094
V        1.66114179      -1.18069403       6.26292014      -8.95379354       0.01075911       0.00106846       0.01159598
V        0.82974019      -2.36013603       8.31085543      -8.91208129       0.00220989       0.00439836      -0.00877012
V        3.35494197       4.80765951       0.02918669      -8.96751034       0.00959096       0.01619792      -0.00604627
V        2.53176320       3.60970579       2.09507225      -8.98458965       0.01055982      -0.02000332      -0.02022865
V        1.74735621       2.39835101       4.19546702      -8.81605848       0.05790806      -0.04350827      -0.07484002
V        0.84241289       1.22347217       6.26801250      -8.97567272       0.03025035       0.01162009      -0.01774761
V       -0.01387797       0.02019758       8.31493169      -8.94473075       0.00321809       0.00851246      -0.01309697
V        2.51503913       7.18269879       0.03102697      -8.91031311      -0.00297876       0.00217538      -0.00885860
V        1.67319754       6.00077234       2.09413351      -8.98137481      -0.00265723       0.00055894      -0.00379342
V        0.88809645       4.89023218       4.17424941      -8.95973447       0.03341268       0.01120746      -0.02247688
V       -0.00630649       3.61941428       6.31047991      -8.80915559       0.02265816      -0.00724711      -0.00966930
V       -0.87752309       2.39428362       8.31047484      -8.92968050       0.00538428      -0.00276523      -0.01037215
V       -2.57865319       3.60669898      10.36963580      -8.94730371      -0.00086653      -0.00204415      -0.00809557
V        0.82163967       8.37694349       2.10442058      -8.91788994       0.00181478      -0.00971442       0.00071892
V       -0.02285547       7.20166246       4.17689949      -8.90921102      -0.00480129      -0.00734083       0.00152405
V       -0.86053369       6.01511257       6.24536535      -8.95833217      -0.00277229      -0.00762514      -0.00331782
V       -1.71255895       4.79363263       8.31301454      -8.90943715      -0.00690375      -0.00661225      -0.00581578
V        3.32739881      11.95468494       0.03727812      -9.12364436      -0.00721229       0.00134156      -0.00292451
V        6.71505266      -1.18287295       2.09797116      -8.92553309       0.01393686       0.00048767      -0.00247584
V        1.65062459       9.56043572       4.17319957      -8.95366757       0.00748962      -0.00029124       0.01046781
V        4.20710833      -4.74534031       8.32117841      -9.23723596      -0.01053674      -0.00663269       0.00310123
V        6.73620522       2.40963572       0.04573826      -9.04581824       0.00568583      -0.00001224       0.00401562
V        5.87750052       1.21322994       2.09322148      -8.99636008       0.02751487       0.00370932       0.00044069
V        5.04642520       0.02681226       4.19008412      -8.93716232       0.02151477       0.00130933       0.00772585
V        4.20515308      -1.18496531       6.26584510      -9.02560627       0.00361113       0.00214803       0.01117052
V        5.88647321       4.80048814       0.03575918      -8.99220124       0.00152018       0.00801365       0.00172707
V        5.04873420       3.60953654       2.10847221      -8.91445402       0.01305992       0.01018152       0.00520612
V        4.20095493       2.40380500       4.16743303      -8.90463030       0.01329549      -0.00213260       0.00200676
V        3.37049061       1.21866298       6.26903301      -8.96152023       0.01159714       0.00359068       0.00245744
V        2.50877554       0.01953143       8.31450300      -8.94922016      -0.00049437      -0.00082455       0.00163398
V        5.03547689       7.18055628       0.02994887      -8.92961646      -0.00810274       0.00236800       0.00113682
V        4.20191081       5.98883903       2.09866435      -8.92557336      -0.00297665       0.00851971       0.00796456
V        3.36865599       4.80273723       4.16766225      -8.93387391       0.00010247      -0.00294924       0.00450488
V        2.52825338       3.61383757       6.25942108      -8.95508201       0.00481049      -0.00798387      -0.01680374
V        1.68366042       2.39948598       8.31702739      -8.95812824      -0.00478743      -0.00583516      -0.00377756
V        4.19570087       9.56392848       0.03132437      -8.91862355      -0.00484789       0.00106847       0.00064265
V        3.34803633       8.36227095       2.08705912      -8.91317487      -0.00321767       0.00339600       0.00150094
V        2.50817151       7.18155744       4.17020996      -9.01154164      -0.00482343       0.00459470       0.00747465
V        1.67588991       5.99559672       6.25196299      -9.05073386      -0.00840776      -0.00495119      -0.00016618
V        0.82545583       4.78745487       8.32170960      -9.09644573      -0.00941491      -0.00864317      -0.00082367
V       10.12230892       0.02309060       0.05197645      -9.28004133      -0.00264719       0.00013853      -0.00366010
V        9.24958131      -1.19402626       2.04878653      -8.87452693       0.00469525       0.00139123      -0.01509542
V        8.36313863      -2.45777798       4.17163802      -8.99282642      -0.00363340      -0.00731794       0.00010148
V        7.56440921      -3.56862760       6.25785587      -9.23289479      -0.00762729       0.00818660      -0.00423906
V        8.40272902       1.20044219       2.10100344      -9.13140839       0.02134906       0.00866482       0.00126432
V        7.52402531       0.03245905       4.17033487      -8.80904219       0.03029815       0.01446715      -0.00604733
V        8.42151635       4.79425354       0.03222447      -9.22860297      -0.00497087       0.00244470       0.00356095
V        7.57015166       3.60516176       2.11051975      -9.11173041       0.01283736       0.00222534       0.00582830
V        6.73481993       2.41483115       4.18841944      -8.95457110       0.01723259       0.00900717       0.00008950
V        5.89946022       1.23823535       6.30120045      -8.78070502       0.02415348       0.00582740       0.00225628
V        7.57858965       7.17873274       0.02721794      -9.00029743      -0.01060143      -0.00626465       0.00460206
V        6.72537688       5.98846902       2.11005686      -8.92864717      -0.00469517       0.00023951       0.00927656
V        5.89268246       4.79241008       4.16731869      -8.91271204       0.00576480      -0.00267340       0.00726241
V        5.02328666       3.61951743       6.21694820      -8.75916522       0.00937091       0.00080962       0.00914978
V        4.26245153       2.38953896       8.30705067      -8.73158716      -0.00892421      -0.00151161      -0.00507275
V        6.72088698       9.55820185       0.02806378      -8.96141257      -0.01178229      -0.01680184      -0.00369737
V        5.87988358       8.34894775       2.09281511      -8.90852532      -0.00753189       0.00427294       0.00834640
V        5.05108982       7.15871526       4.15759236      -8.91315885      -0.00274328       0.00432660       0.00571295
V        4.20432856       5.98121583       6.23798327      -9.08037889      -0.00731358      -0.00277978      -0.00205993
V        3.38163700       4.78804856       8.32385308      -9.09063229      -0.00633003      -0.01038058      -0.00764488
Cr      -0.80132858       2.32030335       0.16629726      -7.79709851       0.01105662       0.00048676      -0.01458523
Cr      -4.24227655      -2.35839808       8.31629674      -7.81215592      -0.00484373       0.01386405      -0.01543294
Cr      -1.71951759       4.81773024       0.02193145      -7.87125163       0.00107254       0.01415515      -0.00592424
Cr       2.50883905       7.17131226       8.31928394      -7.78900111      -0.01681877       0.00507973      -0.01360123
Cr       9.24399766       2.40613307       0.04924762      -7.79487699      -0.00484427       0.01187575      -0.00091897
Ti       5.04328758      -3.56433101       6.25829787      -8.19911815      -0.01123933      -0.00272715       0.00580431
Ti       3.35654627      -2.37556372       8.31865777      -8.21036660      -0.00459744      -0.00227520       0.00326994
Ti       6.71429132      -1.18135681       6.27622737      -8.22400220       0.00422181       0.00839482       0.00042555
Ti       5.85921622      -2.35949955       8.29341020      -8.46492213      -0.00643291       0.00834650      -0.00006178
Ti       5.02198470      -0.03150881       8.31916947      -8.03822487       0.00223877       0.00905228       0.00106651
