124
Lattice="12.66565832686254 -0.002298327060188814 0.00834880377590093 -4.224032352002198 11.93626782835652 -0.005927311628687681 -4.2140114367360075 -5.969726805641839 10.344027844722934" Properties=species:S:1:pos:R:3:energies:R:1:forces:R:3 energy=-1098.5656357265477 free_energy=-1098.5656357265477 stress="-0.017879419362469732 0.0005843134853108228 0.001387323464211915 0.0005843134853108228 -0.020867804134073416 -0.002099109115516414 0.001387323464211915 -0.002099109115516414 -0.01924967030312589" pbc="T T T"
V        0.05731918       0.02059760       0.02578124      -9.01524528      -0.00550673      -0.00478608      -0.00222549
V       -0.82985632      -1.17665122       2.07507609      -9.02055116      -0.01427177       0.01234468       0.02970816
V       10.98535081      -2.39161821       4.15178435      -8.93064022      -0.00724930       0.09886732      -0.00516748
V       -6.74781751       8.35839572       6.21123716      -9.08817106       0.03516583       0.03763921      -0.03262349
V       -3.39285537      -4.76908533       8.27231542      -9.10076770       0.02424717      -0.01144120      -0.01627611
V       -1.67297332       1.20557780       2.07473205      -9.21600093      -0.03820790      -0.00685474       0.08148188
V       -2.50731044      -0.03438838       4.10539659      -8.94142125      -0.09069978       0.35526098       0.27758560
V       -3.34673410      -1.23661282       6.20623075      -9.03028120       0.01118074       0.04304126      -0.08190751
V       -2.52937213       3.61510517       2.06670232      -9.24768620       0.01639858      -0.05675296       0.01093518
V       -3.33551919       2.43987833       4.04697635      -8.96130210      -0.03724516      -0.35803591       0.37830733
V       -4.22168470       1.13522603       6.16354792      -8.29163255       3.72776697      -2.70624869      -4.74371824
V       -5.05582678      -0.17302647       8.34087848      -9.02927589      -0.02990295       0.00367951      -0.06555710
V       -2.49784810       7.20236947      -0.06132284      -8.93433052       0.07360471       0.00688574      -0.06173592
V       -3.37407259       6.01102821       2.06721826      -9.10380902       0.02244574      -0.02159694      -0.02179576
V       -4.20835178       4.83996725       4.10354381      -8.86585834       0.06586084      -0.03915203      -0.09024721
V       -5.01108109       3.76269103       6.02221021      -8.54007443       0.02208011       0.33134114      -0.36320482
V       -3.43891223       9.54768606       0.04570464      -8.58981266       0.01701571       0.00629027      -0.00895607
V        8.43421742       8.37069581       2.09312251      -8.89758534       0.01499916       0.00378643      -0.00563570
V        7.59920284       7.19451715       4.14569593      -8.91397068       0.01459803       0.02004597      -0.02778836
V       -5.90655296       6.01019251       6.21929589      -8.92005259       0.01086746       0.08209275      -0.04199715
V       -6.68503086       4.72039073       8.29712559      -8.72757243       0.07197066      -0.00891158      -0.04989907
V       -5.07157127       2.05875998       7.42257467      -6.79850909      -5.82170078       3.43010493       6.85151808
V        1.71788432      -1.16406866       2.05023202      -8.72968492       0.00607342      -0.01052492      -0.00332961
V       -3.37533650       9.56380037       4.14230747      -8.92984175       0.00392899       0.00373714      -0.01426568
V       -0.00152042      -3.56469792       6.23128091      -8.95146536       0.02063163       0.00810812      -0.03033343
V       -0.85744204      -4.78924067       8.33964374      -8.78842181       0.02173169      -0.00443652      -0.01175837
V        1.71435898       2.34972309       0.03385038      -9.03835344       0.00171810      -0.01347757      -0.00350036
V        0.84896228       1.21646214       2.14698858      -8.86411642      -0.02028111      -0.00976119       0.02071374
V        0.01479387      -0.00168573       4.16204547      -8.92175549      -0.07941110       0.03570581       0.02636936
V       -0.82890113      -1.20078548       6.22242186      -8.96984392       0.02182629       0.06539924      -0.02176932
V       -1.68163500      -2.39178165       8.30587842      -9.08749270       0.01656169       0.00939022      -0.03140220
V        0.86259870       4.76615770       0.03337689      -9.30432306       0.00197015      -0.01464534      -0.02935215
V        0.01417567       3.60253701       2.09248355      -9.20912770      -0.01587986      -0.03530316       0.00095289
V       -0.81260333       2.43470993       4.14976468      -8.98834015      -0.11034512      -0.17473202      -0.01329545
V       -1.57168879       1.19730117       6.20526985      -8.89585858      -0.48866022      -0.03533597      -0.17957658
V       -2.50470394       0.00574229       8.27372489      -9.13136803       0.01430764      -0.04233475      -0.04610478
V        0.02207259       7.17699051       0.01136625      -9.05012465       0.04180816      -0.02053863      -0.03498964
V       -0.83917671       5.99809902       2.07334540      -9.06582233       0.01082401      -0.02801872      -0.02716472
V       -1.66898488       4.82310996       4.13899008      -8.98401737       0.00807558      -0.10682082      -0.02819340
V       -2.49017420       3.60414147       6.18536097      -9.00608451      -0.05211126      -0.16885953      -0.05947790
V       -3.10782336       2.44594352       8.34021514      -8.51184850       0.49204842       0.03070732       0.17527020
V       -5.09181487       3.60539566      10.26634119      -8.69823457       0.06196554      -0.00685814      -0.06487933
V       -1.69271866       8.38111637       2.04596102      -8.99729461       0.01992315      -0.01623095      -0.01733568
V       -2.53237002       7.19531008       4.14187539      -8.95124471       0.01686790      -0.01526125      -0.01190546
V       -3.34630933       6.02832806       6.20513750      -8.93632631       0.05640494       0.00945945      -0.02866266
V       -4.14054447       4.79963956       8.22318040      -8.72835238       0.07582412       0.03811316      -0.03959099
V        0.77860943      -5.95259786      10.36165889      -8.73970055       0.01062957       0.00160299      -0.02007214
V        0.01109265      10.72729159       2.09845174      -8.74664325       0.02142341      -0.00887886      -0.02121832
V       -0.85612259       9.55020869       4.15145532      -8.94334973       0.01861771      -0.01069789      -0.02092258
V       -1.69443645       8.37455326       6.21909348      -8.96854439       0.01796699      -0.00139959      -0.01888755
V        1.68106626      -4.74697382       8.30602112      -8.99171865       0.01953436       0.00045411      -0.02114891
V        4.24774167       2.44533979       0.01919994      -8.75936864       0.00674546       0.00469323      -0.00881894
V        3.37041045       1.19001936       2.04512806      -8.75000680       0.01082096      -0.00575741      -0.00300518
V        2.52095768       0.01001812       4.13426990      -8.93187645       0.02557594      -0.00435723      -0.01660057
V        1.68113095      -1.19133836       6.23321803      -8.94750174       0.01321415       0.00994508      -0.03119008
V        0.84954079      -2.36923346       8.29434910      -8.90748547       0.01540481       0.00261099      -0.02453640
V        3.37685803       4.79585919       0.01865473      -8.96275200       0.01303781      -0.01231642      -0.01611259
V        2.53714459       3.59543180       2.08138050      -9.00668745      -0.00835573      -0.01251809      -0.00034281
V        1.70308076       2.42244119       4.16865648      -8.91061249      -0.02279210      -0.02332686      -0.00526377
V        0.87463165       1.21320268       6.23149400      -8.90987948      -0.04286179      -0.02575979      -0.05510383
V        0.01649043       0.00579884       8.30583246      -8.94446239       0.00283809      -0.00047239      -0.08185226
V        2.55518484       7.15876126       0.04330305      -8.95047562       0.05764752      -0.04328321       0.03947586
V        1.68668240       5.98696860       2.08465959      -8.98090074      -0.00208282      -0.02283739       0.00498653
V        0.85744352       4.81117784       4.15513535      -8.94383913      -0.03566192      -0.06318341      -0.00970947
V        0.02730225       3.62278783       6.21911657      -8.92808971      -0.02322457      -0.08630032      -0.07176172
V       -0.77146164       2.41343220       8.30606778      -8.86209711       0.08656103      -0.04477495      -0.07659225
V       -2.51948069       3.62010198      10.37968544      -8.92113870       0.07784630       0.03443731       0.03864971
V        0.84089516       8.36101713       2.08035882      -8.92076344       0.01621858      -0.01903443      -0.01751769
V       -0.00188404       7.18567587       4.15013256      -8.91715024       0.00262969      -0.02138690      -0.01210244
V       -0.82915802       6.00273208       6.21431505      -8.96643900       0.01717244      -0.02697099      -0.03311633
V       -1.65557893       4.82681133       8.28359429      -8.93430523       0.04816261       0.02832963      -0.04749099
V        3.35719150      11.94957405       0.02070285      -9.11877729       0.03124741       0.00022741      -0.01466524
V        6.74905909      -1.18739652       2.08272782      -8.92629069       0.05565749       0.02303957      -0.00380219
V        1.67697202       9.54619031       4.15236277      -8.96492919       0.03936057      -0.01681542      -0.04526783
V        4.22957205      -4.74940351       8.29871752      -9.24695427       0.01418321      -0.00391651      -0.01898676
V        6.75407239       2.40311780       0.02392234      -9.04347003       0.02007952      -0.00137837      -0.01474298
V        5.89497112       1.21096718       2.06811332      -8.98812099       0.03227876      -0.00319255      -0.00974371
V        5.04253295      -0.00161684       4.12564821      -8.90851829       0.04367130      -0.02535439      -0.04040442
V        4.21054438      -1.22238180       6.24888638      -9.05658273       0.01909423      -0.00648515      -0.03822057
V        5.90712030       4.79980374       0.01739022      -8.99322634       0.01706486       0.00551323      -0.01737319
V        5.05861941       3.60825104       2.08272330      -8.91059276       0.01423170      -0.00785840      -0.01664783
V        4.20146004       2.41896063       4.11882336      -8.95098552       0.02629178      -0.02093417      -0.00809178
V        3.35903538       1.21130724       6.22348768      -8.92831317       0.01587826      -0.01022496      -0.04100604
V        2.53695099       0.01342004       8.29790013      -8.94854150       0.03464727       0.00179417      -0.03222407
V        5.06627381       7.17954979       0.02384088      -8.93821098       0.02029755      -0.00651202      -0.00475736
V        4.21808358       5.98808246       2.08457706      -8.93756781       0.00309482       0.00110946      -0.00276970
V        3.37379237       4.79707111       4.14710927      -8.93045649      -0.01537748      -0.00834574      -0.00994350
V        2.54635490       3.60905966       6.22461457      -8.97031962       0.01184681      -0.02502753      -0.02693733
V        1.71763517       2.40693055       8.29741183      -8.94265412       0.00899726      -0.01844808      -0.03308137
V        4.23449933       9.56774049       0.02778678      -8.90863175       0.03612877       0.00322789      -0.00290392
V        3.37354874       8.36288394       2.08347437      -8.92509778       0.03442814       0.01135306      -0.00389476
V        2.52453081       7.17424343       4.15133323      -8.97961165       0.01416813      -0.00785335      -0.01473125
V        1.69734743       5.98329147       6.22909361      -9.05711162      -0.00188505      -0.02115782      -0.01452582
V        0.85837947       4.78948862       8.29664247      -9.11534131       0.01013163      -0.00761155      -0.02426687
V       10.13733720       0.01158040       0.01930301      -9.27896299       0.01136258      -0.00602445       0.00082080
V        9.28527955      -1.18827959       2.07290667      -8.98183441       0.04672131       0.05398769       0.05907298
V        8.43653930      -2.39174206       4.14969376      -8.97574798       0.06569722       0.04994893      -0.02268436
V        7.58228568      -3.57787133       6.23243676      -9.25320975       0.04471145      -0.02525432      -0.03856433
V        8.44117197       1.20360184       2.06283237      -9.07578867       0.04994781       0.04548053       0.01126781
V        7.59774019      -0.01993996       4.10483632      -8.88801991       0.10811933      -0.01406653       0.02595163
V        8.44084384       4.79204549       0.00682744      -9.23154569       0.03751804       0.00409601      -0.03022416
V        7.58036311       3.60637692       2.07693676      -9.10825579       0.06203108      -0.04003485      -0.00244561
V        6.76028869       2.39716745       4.12320760      -8.96802006       0.01928197      -0.05883010      -0.03771922
V        5.78396544       1.13658884       6.09194023      -8.76507665       0.06150436      -0.04242718       0.03612069
V        7.60764768       7.17896738       0.00297501      -8.99521328       0.02739759       0.00387170      -0.02162398
V        6.73982045       5.99997343       2.08446925      -8.93637294       0.00536307       0.00462088      -0.01896562
V        5.88605006       4.80517469       4.12122599      -8.95425432      -0.02919320       0.02162855      -0.06870487
V        5.07095540       3.60055915       6.18891076      -8.88171440       0.03285043      -0.01068140      -0.04630878
V        4.31282694       2.38470055       8.27494700      -8.79899722       0.08288298       0.00433225      -0.05595499
V        6.74182239       9.56423632       0.01653786      -8.94850797       0.01210140       0.00383856      -0.00895221
V        5.90211209       8.36280507       2.08396696      -8.91808976       0.02057763       0.02907534      -0.00080267
V        5.06189407       7.17101120       4.13846337      -8.92491626       0.01926064       0.02269112      -0.02101970
V        4.22208406       5.96728793       6.21227918      -9.08678126       0.01040272      -0.01099653      -0.01836643
V        3.40882637       4.77998527       8.29924974      -9.09896420       0.01386240      -0.01106435      -0.02446256
Cr      -0.75402996       2.31549679       0.11827758      -7.79601748       0.03391367       0.00958841      -0.02519522
Cr      -4.20270680      -2.41991373       8.31369439      -7.75951743       0.03160263      -0.02987186      -0.03859369
Cr      -1.69022100       4.77782309       0.03853502      -7.82703474       0.03527932      -0.01938192      -0.02774171
Cr       2.52799229       7.15964693       8.29966181      -7.79781674       0.01487990      -0.00667076      -0.01924548
Cr       9.27351677       2.39331506       0.03193120      -7.79291510       0.03884023      -0.00765240      -0.00317641
Ti       5.06619480      -3.57630161       6.23551827      -8.18741157       0.02830182      -0.01965030      -0.03113162
Ti       3.37404728      -2.37967774       8.30658147      -8.18920800       0.02512494      -0.00386242      -0.01656871
Ti       6.75540955      -1.21169617       6.21905840      -8.19462497      -0.01968413      -0.11470399      -0.07105152
Ti       5.87570441      -2.37218950       8.26814490      -8.52618218       0.03001344      -0.01900498      -0.00711046
Ti       5.06144326      -0.02633555       8.28737016      -8.08464577       0.03752185      -0.03202862      -0.04459559
