124
Lattice="12.66565832686254 -0.002298327060188814 0.00834880377590093 -4.224032352002198 11.93626782835652 -0.005927311628687681 -4.2140114367360075 -5.969726805641839 10.344027844722934" Properties=species:S:1:pos:R:3:energies:R:1:forces:R:3 energy=-1097.880761161607 free_energy=-1097.880761161607 stress="-0.024300624674560074 -0.0011268930508562171 -0.0016402784439719733 -0.0011268930508562171 -0.02589479338929111 0.0014425898452704992 -0.0016402784439719733 0.0014425898452704992 -0.023528428566214198" pbc="T T T"
V        0.05809586       0.01490118       0.02547946      -9.01948439      -0.00747531       0.01065324      -0.01956330
V       -0.82331405      -1.18645938       2.06160290      -9.03038837       0.07165051      -0.00356205      -0.04665673
V       10.98883101      -2.42285980       4.15214526      -8.90104581      -0.01196734       0.01767065      -0.03181085
V       -6.75704451       8.35079472       6.22265587      -9.09330649       0.02064008       0.01159969      -0.02924831
V       -3.39983464      -4.76612195       8.28136774      -9.09681233       0.02157809      -0.01595896      -0.03258604
V       -1.66196252       1.20314590       2.04911990      -9.20213899       0.06641187      -0.03314032       0.00318805
V       -2.47593366      -0.13760880       4.02089099      -8.83299303       0.64316909       0.43720159      -0.28043970
V       -3.34722697      -1.25079581       6.22867323      -8.98901670       0.07672267      -0.06479271      -0.08653062
V       -2.53618406       3.62970348       2.06249178      -9.19892605       0.03917203       0.00158712      -0.09465131
V       -3.31951029       2.53966421       3.93870747      -8.62240761       0.19792360       0.22753643      -0.43827295
V       -5.17597983       1.79082416       7.35244745      -7.86812038      -1.53623792       0.98415926       1.86408553
V       -5.05251132      -0.16309460       8.35737405      -8.80469853       0.12128746      -0.44133515       0.10649865
V       -2.51368417       7.19745014      -0.04737957      -8.93777519       0.03811624       0.00538714      -0.04114986
V       -3.38452383       6.01570157       2.07485527      -9.09844132       0.01773536       0.02609295      -0.02595125
V       -4.22963088       4.85092016       4.12961033      -8.88425221       0.03743115       0.11772338      -0.09511855
V       -5.01728443       3.68161825       6.11297979      -8.69590970       0.16919896       0.21216159      -0.33505992
V       -3.44076930       9.53754464       0.04196834      -8.58380168       0.01847876      -0.00277877      -0.01595976
V        8.43017807       8.36694134       2.09386625      -8.90081299       0.01473206      -0.00016690      -0.00621318
V        7.59201736       7.18702478       4.15703146      -8.91417219       0.00650642       0.01948025      -0.02357300
V       -5.91192674       5.98907489       6.23523260      -8.93641014       0.01290154       0.04119198      -0.04488522
V       -6.70434960       4.72156996       8.30925951      -8.68003435       0.02817878      -0.02490962      -0.05193556
V       -3.48104582       1.18539543       5.59782252      -7.90250971      -3.16806180       0.02586092       2.62636086
V        1.71547800      -1.16532741       2.04918458      -8.73542917       0.02221819      -0.01917975      -0.00237925
V       -3.37564654       9.56252378       4.14654175      -8.92525760       0.04199141      -0.04574668      -0.02061748
V       -0.00823359      -3.56686609       6.24225313      -8.94952651       0.02082943      -0.00243310      -0.02428912
V       -0.86606587      -4.78524938       8.34874794      -8.78969118       0.02097647      -0.03540577      -0.00861235
V        1.71149450       2.35561513       0.03711805      -9.03671628       0.00168447      -0.01965261       0.00315824
V        0.85637745       1.21600797       2.14016122      -8.85968209      -0.05375266       0.02203765       0.06218252
V        0.03970027      -0.01381374       4.15164454      -8.91009931       0.02462893       0.01512752      -0.07120450
V       -0.83410358      -1.21906223       6.22705811      -8.94622062       0.07154220      -0.02985032      -0.05537081
V       -1.68763010      -2.39101701       8.31648820      -9.09248610       0.03316524      -0.01347225      -0.00854861
V        0.85864269       4.77051130       0.04201650      -9.30259068       0.05584429      -0.03034260       0.02119355
V        0.01567408       3.61102091       2.09436686      -9.19610345       0.02727675      -0.02945284       0.05991139
V       -0.78131915       2.48148477       4.15136608      -9.01826174      -0.36566943      -0.65236304      -0.09800608
V       -1.43192115       1.20886549       6.24933985      -8.55492648       0.52850899      -0.00652334      -0.01128535
V       -2.51169110       0.01785908       8.28547818      -9.13929116       0.08437656      -0.03200190      -0.04151161
V        0.01104269       7.18096812       0.02458514      -9.03769011       0.03515465       0.00058957      -0.06035968
V       -0.84647519       6.00473718       2.08451726      -9.06467088       0.02842072      -0.02272014      -0.00626734
V       -1.67397586       4.85227927       4.14916660      -8.98970390       0.14134766      -0.01948637      -0.03137014
V       -2.48058924       3.65216546       6.20505156      -8.97203825       0.14541126       0.07303862      -0.08318367
V       -3.22483583       2.43996206       8.29892142      -8.67421092       0.45176167       0.03098693      -0.00539864
V       -5.10735079       3.60466934      10.28454172      -8.64903304       0.04242985      -0.04378605      -0.04440618
V       -1.70039776       8.38380687       2.05580263      -8.99680296       0.02393360      -0.02271225      -0.02040519
V       -2.54103933       7.19852400       4.15026896      -8.94741027       0.03037392      -0.00341896      -0.02268993
V       -3.36396775       6.02664302       6.21560364      -8.92733328       0.05326746       0.04173089      -0.03227227
V       -4.16025404       4.79702588       8.23878621      -8.64689125       0.03584923      -0.06272159      -0.06581778
V        0.77091819      -5.94830581      10.37039609      -8.74106808      -0.00468888      -0.01813796      -0.03873787
V        0.00326826      10.73112776       2.10442738      -8.74257947       0.02645017      -0.02362472      -0.03081013
V       -0.86139054       9.55515293       4.15903556      -8.94052855       0.02442253      -0.02774806      -0.01995842
V       -1.70122754       8.37824722       6.22724264      -8.96608057       0.02550639      -0.01646684      -0.01596577
V        1.67356525      -4.74369235       8.31391778      -8.99456689       0.01120912       0.00066058      -0.01179210
V        4.24267120       2.45050133       0.02649894      -8.75859398       0.00563169      -0.00885979      -0.01408842
V        3.36819627       1.19525160       2.05205263      -8.74869750       0.00909149      -0.00682388      -0.01688707
V        2.51601841       0.01140988       4.13972875      -8.92772764       0.04374739      -0.01155878      -0.04063211
V        1.67785799      -1.19395143       6.24208719      -8.94313999       0.03499024      -0.02640332      -0.03067614
V        0.84390368      -2.36787400       8.30240883      -8.90775603       0.02371798      -0.01645125      -0.01161448
V        3.36898197       4.79968666       0.02625855      -8.96167754       0.01722305      -0.01716259       0.00670250
V        2.53410641       3.60177451       2.08740007      -9.00565914      -0.00591266      -0.01596348      -0.00373482
V        1.70842809       2.42804013       4.17242843      -8.90112331      -0.06403916       0.04285596      -0.04069883
V        0.88580623       1.21735458       6.24682827      -8.85955575       0.08804177      -0.01419314      -0.03754809
V        0.01420123       0.00323491       8.32952229      -8.96092450       0.05350962      -0.04289328       0.03206021
V        2.53679310       7.16796625       0.03674102      -8.93922578       0.03773852      -0.03699775       0.02179318
V        1.68145568       5.99371211       2.09001863      -8.98246834       0.00043523      -0.01444277       0.00798138
V        0.86153557       4.82963783       4.16224289      -8.95250680      -0.05738217      -0.11421712      -0.01661444
V        0.03052489       3.64659562       6.23929945      -8.93333524       0.05989349       0.04537046      -0.13202745
V       -0.79572069       2.42480204       8.32850385      -8.88203638       0.15002161       0.04458345       0.03692262
V       -2.54455566       3.61218552      10.37121028      -8.93921044       0.06405556       0.00582687       0.00897805
V        0.83329683       8.36617806       2.08787224      -8.92314462       0.01635484      -0.02134561      -0.02672678
V       -0.00701991       7.19383659       4.15955796      -8.91974898       0.01581340      -0.01935505      -0.02143106
V       -0.83683518       6.01192390       6.22562429      -8.97480448       0.03110588      -0.00842130      -0.02919563
V       -1.67127557       4.82095876       8.29695776      -8.92733933       0.06740836       0.04520691      -0.02240247
V        3.34567014      11.95091866       0.02410890      -9.11626881       0.02357862      -0.00153426      -0.02123225
V        6.73326989      -1.19063419       2.08424590      -8.92860611       0.03924072      -0.00312371      -0.01448530
V        1.66813002       9.55052310       4.16119514      -8.96835016       0.04031125      -0.02357914      -0.02655370
V        4.22250291      -4.74588503       8.30599668      -9.24418674       0.01767143      -0.00040433      -0.02584620
V        6.74707668       2.40633933       0.02849532      -9.04367391       0.01210354      -0.00434102      -0.03107642
V        5.88547826       1.21483182       2.07215386      -8.99393440       0.01363386       0.00482864      -0.03408520
V        5.03367799       0.00640589       4.13655108      -8.89840284      -0.00790845      -0.03881314      -0.09299775
V        4.20785344      -1.21995449       6.25631277      -9.05480032       0.00992851      -0.06801149      -0.01596484
V        5.89944399       4.80041453       0.02434316      -8.99988052       0.01652821       0.00349201      -0.01554009
V        5.05113359       3.61166486       2.09054006      -8.90941446      -0.00807962       0.00460280      -0.02342261
V        4.19429635       2.42387647       4.12497544      -8.94825918      -0.01024418       0.03550617      -0.06823671
V        3.35553837       1.21420133       6.23503372      -8.92807459      -0.02189872      -0.00696432      -0.04902148
V        2.52797280       0.01263001       8.30719516      -8.95117258       0.03803963      -0.01115506      -0.00686660
V        5.05612921       7.17970743       0.02846733      -8.93597217       0.02650839      -0.00454590       0.01053973
V        4.21071176       5.98917709       2.09072272      -8.93001183      -0.00088749       0.00286741       0.00114146
V        3.37093583       4.80165860       4.15540464      -8.93265974      -0.01344816       0.00065106      -0.00713600
V        2.53871449       3.61589998       6.23453643      -8.96966012       0.00619101       0.00433926      -0.03564264
V        1.71206211       2.40877295       8.30870413      -8.93766169       0.04081511       0.01249479      -0.00290976
V        4.21875349       9.56529697       0.02811082      -8.90999741       0.03290911       0.00314786       0.00318577
V        3.36135526       8.36053972       2.08493242      -8.92387304       0.02200645       0.00414247       0.00542607
V        2.51903094       7.17844983       4.15860776      -8.98575130       0.01325603      -0.00396286      -0.01344703
V        1.69194387       5.99095853       6.23721427      -9.06003689       0.01154753      -0.01046772      -0.01974181
V        0.85036306       4.79171584       8.30447336      -9.11157212       0.02850225       0.00449050      -0.02466495
V       10.13270393       0.01218285       0.01785860      -9.27473260       0.00552067      -0.01313636      -0.06261528
V        9.27058790      -1.20648617       2.05212464      -8.95229483       0.02918154      -0.01183434       0.01285512
V        8.42084441      -2.40471940       4.15497942      -8.98112289       0.10814469       0.11438380      -0.02174292
V        7.57319650      -3.57317578       6.24216405      -9.25626567       0.02101308      -0.01059205      -0.03558853
V        8.42712880       1.19029715       2.05778582      -9.04721263       0.04523379      -0.01405785      -0.07544399
V        7.56791759      -0.01743434       4.09334147      -8.85112515       0.08845497      -0.06879553      -0.10783394
V        8.42960910       4.79148334       0.01453172      -9.23296266       0.00696581       0.00328056      -0.03525368
V        7.56068701       3.61667180       2.07714200      -9.12588236      -0.02567368       0.01950451      -0.06643060
V        6.75472823       2.41340561       4.13588572      -8.97162297       0.04467491      -0.00094025      -0.09995489
V        5.77364754       1.15427537       6.09362919      -8.52171603      -0.24479817      -0.14144132      -0.36505451
V        7.59885056       7.17647085       0.00945926      -8.99772993       0.02337600      -0.00060511      -0.02085777
V        6.73246960       5.99838691       2.09267875      -8.93432342      -0.00368478       0.01964821      -0.02464418
V        5.88897985       4.79966485       4.14073268      -8.94102206      -0.02080952       0.01528076      -0.05115160
V        5.05871572       3.60503960       6.20030302      -8.87782105       0.05880775      -0.01681400      -0.03329945
V        4.29414042       2.38115106       8.28510231      -8.80269781       0.04238602      -0.00129652      -0.02793383
V        6.73749045       9.55993723       0.01659959      -8.95137853       0.01413176       0.00457998      -0.00824755
V        5.89394568       8.35324212       2.08415231      -8.90835505       0.01306984       0.01742214      -0.00143242
V        5.05546196       7.16439362       4.14669130      -8.92332085       0.00151017       0.02116941      -0.01516336
V        4.21621097       5.97134154       6.22180638      -9.08890675       0.01459655      -0.01546455      -0.02117671
V        3.40025573       4.78269341       8.30629697      -9.09868677       0.01452389      -0.00718238      -0.02831943
Cr      -0.76289737       2.31532391       0.12856832      -7.79607018       0.06667599       0.00909519      -0.07833210
Cr      -4.21185118      -2.40919615       8.32363602      -7.78433518       0.05215397      -0.08394785       0.00464894
Cr      -1.70026895       4.78252683       0.04588041      -7.81338930       0.02842674      -0.05483954       0.03818260
Cr       2.52241996       7.16408363       8.30669130      -7.78965555       0.01246565      -0.00490855      -0.02708859
Cr       9.26200735       2.39559641       0.03219018      -7.77827036       0.02630167      -0.01369465      -0.03191187
Ti       5.05909692      -3.57094404       6.24389626      -8.17996750       0.02832585      -0.01794512      -0.02744401
Ti       3.36729690      -2.37785954       8.31135422      -8.18872794       0.01913495      -0.00302047      -0.01028992
Ti       6.75744852      -1.18733170       6.23721212      -8.15868178       0.07096466      -0.02852267      -0.07446875
Ti       5.86895434      -2.36623345       8.27032054      -8.52426951       0.01586652      -0.00778757      -0.04162923
Ti       5.05130288      -0.02259828       8.29804392      -8.15696821       0.05874507       0.02146122      -0.03967180
