124
Lattice="12.66565832686254 -0.002298327060188814 0.00834880377590093 -4.224032352002198 11.93626782835652 -0.005927311628687681 -4.2140114367360075 -5.969726805641839 10.344027844722934" Properties=species:S:1:pos:R:3:energies:R:1:forces:R:3 energy=-1066.84994124014 free_energy=-1066.84994124014 stress="-0.0826816806298439 -0.0038621193803616526 -0.006451569101851511 -0.0038621193803616526 -0.0895227956018288 0.0030924679215003055 -0.006451569101851511 0.0030924679215003055 -0.08126622396237117" pbc="T T T"
V       -0.30779860       0.62244731       0.33847071      -8.50799234      -0.33433959      -1.81556284      -0.14985054
V       -2.13171177       0.38532596       4.01392223      -7.44793728       0.94174440      -2.03149044      -2.22033468
V       10.57977462      -2.38608196       4.84053746      -8.65874262      -0.54070127       1.51986695      -1.75345130
V       -7.19589015       8.42696181       6.69153792      -8.97580153       0.29334902       0.04421901      -0.01871439
V       -3.73374454      -4.65593161       8.65985633      -8.92025544       0.15104869       0.14007352       0.09958824
V       -2.39726473       1.79817224       2.41515936      -8.47387823       0.09459811      -0.08191921      -0.85921704
V       -3.40845783       0.93213754       5.40986929      -7.22694614      -3.64245486      -1.36295747       2.15888579
V       -3.76715756      -1.20543396       6.89534649      -8.78272480      -0.51308376       0.37229663      -0.81423250
V       -3.13460768       3.90557351       2.51754738      -9.14159186       0.51681300       0.26851748       0.11209226
V       -4.04504201       2.65816767       4.56535547      -7.87583634      -1.52890341       0.74649740      -0.43009886
V       -4.83947015       1.35536694       6.83558254      -7.97084340       0.86323749      -1.09195523      -0.74973403
V       -5.53747536       0.26450380       8.65062352      -9.04127448       0.20112266      -0.89662959       0.18186608
V       -2.94683833       7.43139987       0.23831568      -8.76854605      -0.02702472      -0.16676733       0.55963587
V       -3.81233923       6.15031946       2.43609325      -9.01032039      -0.04680049       0.13478992       0.19645917
V       -4.71763349       4.93470863       4.61712486      -8.86852090       0.22995337       0.16469984      -0.18505897
V       -5.75207232       3.45477570       6.74425136      -8.02936903      -0.55863830       0.27448115      -0.28422420
V       -4.18140354      12.89137143       2.54599106      -7.79151267       0.46649570      -0.57630151      -0.81408659
V        8.06328408       8.37056622       2.67206226      -8.39071812      -0.44273582       1.06190248      -1.18831703
V        7.15051342       7.25052416       4.57948929      -8.81731801       0.19317336       0.31941749      -0.10119021
V       -6.32316784       6.05513035       6.65272045      -8.92976063       0.02366911       0.03725696      -0.00064719
V       -7.17553092       4.52839722       8.58253602      -8.32670006       0.55159138       1.08596603       0.46540648
V      -12.43813769       4.98467596      14.90110215      -6.83779595       2.69855889       3.40085133       1.13593454
V        1.55654169      -0.70234590       2.69268229      -8.06347151      -0.73679059      -1.79648328      -0.90976632
V       -3.80962863       9.83145077       4.61199675      -8.71741605       0.13776601      -0.29484218      -0.14884551
V       -0.39118531      -3.37634206       6.68145688      -8.79380506      -0.32262957       0.28586008       0.21181574
V       -1.24004699      -4.58856206       8.67252775      -8.56408216       0.14996810      -0.98437983       0.75854239
V        1.23086618       2.54426271       0.66208781      -8.96162133      -0.16421861       0.44021907      -0.53048797
V        4.37378489      -1.31748854      -3.19569790      -7.55148819      -0.27945979      -1.11439867       1.49390426
V       -0.28239945       0.25727050       5.07069782      -8.09647495       0.40000354      -0.31308055      -0.48486636
V       -1.30674910      -1.09049736       6.80408058      -8.81215578      -0.15501202      -0.59458674      -0.30507524
V       -2.13856198      -2.32006082       8.85910578      -9.11545190       0.36700158       0.03049902      -0.18991488
V        0.43700812       4.88128498       0.47064710      -9.14330364      -0.20477889       0.20899085       0.19962424
V       -0.60304248       4.19828041       2.60579604      -8.75111551       0.46812649      -0.95689479      -0.60232374
V       -0.38469753       2.41892120       3.82100325      -7.48511722      -0.31997912       1.91693917       1.77026332
V       -2.10031864       1.19518423       6.89954533      -7.97184238       0.95333760      -0.97774882       0.68527606
V       -2.96722836       0.10222635       8.76102604      -8.98035996      -0.19560031      -0.00019327       0.52537156
V       -0.33287782       7.17109913       0.58447315      -8.78681180      -0.43782780       0.49928675      -0.36689160
V       -1.32303936       6.31908833       2.54813239      -8.80418971       0.12971483      -0.67415141       0.06104632
V       -2.21187382       5.14531556       4.65670638      -8.93353351       0.25571338      -0.08113603       0.46832093
V       -2.05604201       2.85438303       5.03122664      -7.51867405       3.72218045       1.06467984      -2.74058769
V       -4.07837251       2.39589980       8.80601271      -8.60073464       1.23565678       1.22078538      -0.45653642
V       -5.60601811       3.44074532      10.60583103      -8.28151621       0.28172129       1.06617893       0.12653760
V       -2.09864228       8.63423317       2.51755141      -8.70095054       0.07104376      -0.24803459      -0.12164303
V       -2.91630867       7.44600063       4.55924479      -8.84184489      -0.07689189       0.09121621      -0.19059281
V       -3.76846413       6.50483667       6.53017115      -7.95723966       0.37268327       0.91492751      -0.07419228
V       -2.27713647       3.48517960       7.02576047      -7.20615071      -1.51185515       0.85646995       0.42753771
V        0.47685509      -5.79269388      10.79297812      -8.46132674      -0.93318312      -0.12941438      -0.50850532
V       -0.40242582      10.90002025       2.47612871      -8.58979441       0.01473387       0.18502372      -0.08396634
V       -1.23344223       9.75378762       4.59218426      -8.94798648      -0.16549655       0.10175382       0.16490613
V       -2.02605131       8.59773540       6.63718388      -8.94880747       0.00293446       0.16994824       0.20302799
V        1.32004813      -4.54991146       8.73318642      -8.84789348      -0.11687280      -0.11812030       0.18393486
V        3.76199805       2.52774796       0.45550703      -8.71330729       0.21385224       0.20267500      -0.01313296
V        2.68025017       1.47261277       2.50257960      -8.68181898       1.10574117      -0.01850738       0.52660513
V        2.09369894       0.28454531       4.84457761      -8.78007871       0.34109475       0.03119874      -0.92342733
V        1.27085740      -1.06626757       6.75073110      -8.93061997       0.48915881       0.10590216       0.27432619
V        0.44248121      -2.24676236       8.77083596      -8.89781688       0.05385766       0.00682260      -0.06540029
V        2.93435949       4.89761215       0.48235252      -8.94236351       0.08566882       0.23285438      -0.01651006
V        2.07988084       3.92344670       2.63536348      -8.88056317      -0.41016654      -0.68766584       0.00180231
V        1.35765178       2.83431216       5.02832383      -8.35001707       0.52163695      -0.77843503      -1.08203848
V        0.38330628       1.38904248       6.90434215      -8.66725778       0.09408418       0.52342821      -0.02044509
V       -0.42658999       0.09705779       8.80449870      -8.89999259       0.18097846       0.05331644       0.14362544
V        2.15788816       7.29880424       0.45148589      -8.84021482      -0.34558871      -0.03738928       0.16245321
V        1.33785463       6.21843196       2.54648994      -8.99560636      -0.48090561      -0.51671905       0.11009442
V        0.39462314       5.10293775       4.70679667      -8.92608970       0.02774382      -0.35384364      -0.45010051
V       -0.24504468       3.89497325       6.86623655      -8.45365191       0.72383386       0.08562508      -1.19471182
V       -1.34791830       2.53784698       8.85233271      -8.77166754       0.93176017      -0.50187873       0.93769561
V       -3.00438050       3.72817501      10.77375524      -8.72773929      -0.03069583       0.02193010      -0.32671615
V        0.46699879       8.57307080       2.51431820      -8.86754533      -0.30190997      -0.36616947      -0.11189633
V       -0.35355498       7.42616978       4.59814243      -8.88128671      -0.30508644      -0.20703168       0.06762910
V       -1.23460219       6.23431870       6.69679219      -9.03237630       0.05134912      -0.25469290      -0.01856021
V       -1.96127302       5.04768060       8.85619653      -8.69938080      -1.12933912       0.12693321      -0.22801941
V        2.97533003      12.16572917       0.46828983      -9.05231352      -0.46028929      -0.14943227      -0.02251353
V        6.25727441      -1.05698755       2.49579842      -8.95201947      -0.06307947       0.05588549      -0.25737136
V        1.27066539       9.73176932       4.56290865      -8.88288146      -0.77308030       0.10559549       0.14550437
V        3.88195019      -4.53673714       8.69632836      -9.21828359      -0.22375707      -0.01176441       0.19276157
V        6.31608071       2.57907529       0.41247057      -9.04533443       0.07749302      -0.16972851       0.13394383
V        5.32672239       1.36359624       2.47263979      -9.00909265       0.32752714       0.13807901      -0.28499575
V        4.62502816       0.18046227       4.59457778      -8.78275753      -0.49326448       0.05100021      -0.05379971
V        3.90514436      -1.07374927       6.63333425      -9.02628314      -0.45532387       0.18433855       0.37490715
V        5.48234713       4.89639969       0.41888104      -8.96019004       0.01784788       0.14255102       0.06270145
V        4.58396346       3.73406396       2.48611491      -8.86600572       0.12856438       0.13180891       0.11697710
V        3.77196355       2.55419384       4.52996793      -8.82500613      -0.17061726       0.11945996       0.23159766
V        3.04598033       1.34532447       6.75465851      -8.93929227      -0.25542841       0.28861741       0.11348722
V        2.15729834       0.11194182       8.71799643      -8.91529131      -0.16015691      -0.00165010       0.12527435
V        4.67307054       7.27264242       0.41386096      -8.89916009      -0.08563650       0.03420268       0.21518048
V        3.84011462       6.11313001       2.46184135      -8.89216555      -0.20652664      -0.02833342       0.15426069
V        2.99606809       5.05315654       4.56947257      -8.97161540      -0.39867925      -0.53431413       0.05339533
V        2.18218961       3.87908264       6.83687432      -8.65264041      -0.09328463      -0.42502585      -0.68875698
V        1.31338054       2.50958440       8.76599292      -8.87934978       0.11519057       0.12775428       0.23285851
V        3.76498178       9.66505595       0.43817968      -8.83386428       0.24333635       0.42336593       0.27089735
V        2.99088742       8.48624269       2.44038475      -8.72083221      -0.47225745      -0.21371679      -0.85439948
V        2.14468013       7.33744150       4.56046478      -8.86135553      -1.01967673      -0.96525209       0.23698485
V        1.32857586       6.22005598       6.64833878      -9.02652220      -0.07340092      -0.03481657       0.15465807
V        0.48924537       5.01678866       8.78917784      -8.98876300      -0.09783159      -0.02222052       0.40280300
V        9.78960450       0.25524774       0.54118777      -9.13324793      -0.15883782      -0.24078723      -0.33480275
V        8.64863929      -0.98481451       2.44271302      -8.51412151       1.62434882      -0.28255846       0.36988095
V        7.77954162      -2.72961652       4.50922969      -7.61347679       0.77037945       1.36703706       0.64438744
V        7.20927663      -3.40851081       6.68936830      -9.12847312      -0.34869702      -0.11318213       0.50077247
V        7.88020301       1.39818266       2.52092866      -9.06253386       0.03345748      -0.09717937      -0.33842655
V        6.88893805       0.19932781       4.49164145      -8.47511070      -0.51648077       0.01535477       0.54021542
V        8.02948129       4.92368191       0.35409928      -9.24347215      -0.13029333      -0.06283667       0.25201256
V        7.08926537       3.73739580       2.47480527      -9.04020791      -0.09173430       0.16221363      -0.06519341
V        6.28430747       2.49442747       4.53647393      -8.81094600      -0.40533611       0.17106955      -0.04752074
V        5.53451026       1.33883191       6.71206158      -8.72574864      -0.63072378      -0.53685450      -0.50366657
V        7.19315714       7.29568697       0.39774060      -8.77508257      -0.11003209       0.17781244       0.24747346
V        6.34177933       6.09514116       2.45207161      -8.89733063      -0.12444577       0.09508054       0.12270640
V        5.50306665       4.93348862       4.50053135      -8.84924093      -0.03201641      -0.18235990       0.30062420
V        4.54289855       3.75951070       6.46329057      -8.61119603       0.21966229      -0.11374881       0.60935540
V        4.03522094       2.49778738       8.74294817      -8.61001465      -0.60193935       0.13778234      -0.02089442
V        6.17828005       9.71824622       0.35059472      -8.42636538       1.21625185      -0.34160518       0.81151998
V        5.46000434       8.41844599       2.48452087      -8.78501946       0.63108412       0.82001927       0.07425178
V        4.69689506       7.26503835       4.52482532      -8.71389436       0.50255023      -0.61646964       0.22772092
V        3.84266281       6.16478536       6.62381455      -9.02200261      -0.12090112      -0.53251901      -0.02101926
V        3.02639870       5.01109343       8.77577442      -8.76782283       0.06034460      -0.12842582      -0.14321622
Cr      -1.39341708       2.72194111       0.44839436      -7.65339600       0.63579247      -0.28131416       0.53157522
Cr      -4.59530385      -2.23827096       8.73007869      -7.56972526      -0.43342923      -0.30527771       0.66958554
Cr      -2.16428508       5.02324671       0.29557791      -7.74037601      -0.07960594       0.15122599       0.47669543
Cr       2.12859686       7.35804505       8.67477559      -7.70568762      -0.15095905       0.17886178       0.13864325
Cr       8.80994960       2.58956518       0.39146345      -7.61656970      -0.15771121       0.25102270      -0.19442223
Ti       4.72760032      -3.38569543       6.63511849      -8.08883367      -0.41489754       0.08912452       0.25801080
Ti       3.03125337      -2.23973807       8.67252608      -8.20159486      -0.24305290       0.15391626       0.25682609
Ti       6.39675731      -1.06936708       6.66068320      -8.25433932      -0.11490027       0.25304917       0.17382524
Ti       5.55491933      -2.25967926       8.66595707      -8.48343664      -0.41105669       0.22182292       0.44965864
Ti       4.65847523       0.01410941       8.64864031      -7.96071349      -0.17421911       0.35840217       0.27716756
