124
Lattice="12.66565832686254 -0.002298327060188814 0.00834880377590093 -4.224032352002198 11.93626782835652 -0.005927311628687681 -4.2140114367360075 -5.969726805641839 10.344027844722934" Properties=species:S:1:pos:R:3:energies:R:1:forces:R:3 energy=-1103.3830255319226 free_energy=-1103.3830255319226 stress="-0.00579205644895847 -1.5129326412852124e-05 0.0007202100565388316 -1.5129326412852124e-05 -0.00653249511179059 -0.0002923154742159218 0.0007202100565388316 -0.0002923154742159218 -0.005266877564956274" pbc="T T T"
V       -0.06227124       0.08377905       0.15201031      -9.20547122      -0.04467728       0.03200727      -0.06341332
V       -0.92265693      -1.09647411       2.20174871      -8.97394759       0.02443272      -0.07648350      -0.08132107
V       10.90632211      -2.34070725       4.23758076      -8.92983680      -0.00816850       0.04735243      -0.00971481
V       -6.81709884       8.38178688       6.28811995      -9.11038308       0.00999791       0.03430499       0.00639926
V       -3.43384597      -4.76638261       8.37359573      -9.28253512      -0.02232230       0.14402541       0.05781774
V       -1.77645193       1.28934346       2.20574407      -9.20983418       0.06700843      -0.08680438      -0.04286840
V       -2.62068168       0.04203440       4.24240378      -8.96128038       0.07109801       0.04340775      -0.04704430
V       -3.43971229      -1.18983139       6.30392631      -9.03944604      -0.02651798       0.11280825      -0.04328778
V       -2.66206370       3.65928705       2.16823135      -9.25902559       0.19135860      -0.03928700       0.03472910
V       -3.48213875       2.43642527       4.23044771      -8.96835374       0.04298371       0.02409460      -0.02849422
V       -4.28149379       1.18390643       6.25083178      -8.77528631      -0.00878336       0.09013910       0.04557529
V       -5.16239754       0.08465569       8.35038480      -9.11217842      -0.03121285       0.07591447       0.01957948
V       -2.59895895       7.23480690       0.02106772      -8.87310228       0.02447610       0.02778165       0.09210395
V       -3.47352607       6.04839818       2.14477840      -9.10674778       0.04781828      -0.06111703       0.04984508
V       -4.31552940       4.82030459       4.22849148      -8.93496188       0.01043972       0.01825282       0.02669965
V       -5.16496143       3.58207314       6.32069976      -8.75492968       0.00453777       0.05584552       0.08494563
V       -3.47226424       9.61857213       0.11860874      -8.76758765      -0.11919552       0.12656420       0.17679018
V        8.35885359       8.42915663       2.16962210      -8.91257502       0.01386078      -0.03055018       0.02584826
V        7.52412918       7.21198610       4.21905413      -8.92970043      -0.00153233       0.01515140       0.04619818
V       -5.97816158       5.99186369       6.28013159      -8.93794312       0.02368878       0.00441687       0.08090451
V       -6.78210837       4.73647892       8.34493581      -8.78081599      -0.11051393       0.12817369       0.08391959
V        0.76151815       1.43805560       2.33698588      -8.99630847       0.12778166      -1.29722884      -0.79523050
V        1.59344070      -1.08888238       2.18460268      -8.91977433       0.07885014      -0.12226792       0.09059073
V       -3.46885486       9.63175625       4.22581759      -8.93104317       0.03501390      -0.10304402       0.03425905
V       -0.07675455      -3.53327959       6.29353384      -8.94916617      -0.00361944      -0.01963915       0.02372866
V       -0.91794814      -4.74395265       8.36557750      -8.96413938      -0.01296712       0.09667376       0.01575031
V        1.59274549       2.45091111       0.12194276      -9.21359462       0.07511629      -0.07166730       0.08703198
V        2.45709522       0.03704324       0.09017765      -8.95988758      -0.02742972       0.09834242       0.11925421
V       -0.09303771       0.08919073       4.29235847      -8.91631134       0.04893574      -0.06288331      -0.08460110
V       -0.92826217      -1.15972320       6.31472060      -8.98174069       0.01546985       0.01749879      -0.00449000
V       -1.76577333      -2.37475454       8.37659397      -9.08426930      -0.00275368       0.10502311      -0.03441957
V        0.76239405       4.81739806       0.09597869      -9.23474094      -0.01828270       0.05870305       0.05439693
V       -0.12758972       3.74731885       2.21339490      -9.16820161       0.31661552      -0.60821087      -0.01637901
V       -0.96344899       2.48113218       4.30543688      -8.98530335       0.16040442      -0.04203392      -0.17859322
V       -1.77542790       1.23342992       6.32783635      -8.91815595       0.05898859       0.01687520      -0.04129832
V       -2.60671120       0.02455578       8.37247326      -9.11138326      -0.03069687       0.09387713      -0.00210117
V       -0.04810443       7.17110309       0.13132910      -8.90160651      -0.05662989       0.14261468      -0.04674071
V       -0.95727710       6.05864765       2.17013051      -9.04558409       0.09277352      -0.11428373      -0.00204794
V       -1.80116078       4.85167932       4.25337637      -8.97740121       0.06881488       0.00500875      -0.07371170
V       -2.62953954       3.61438083       6.30921011      -8.94154041      -0.04713708       0.07555553       0.07908543
V       -3.50003972       2.41555955       8.36318648      -8.75968092      -0.04605305       0.10506720       0.00976254
V       -5.15486785       3.58186594      10.35423354      -8.74357387      -0.03012972       0.09153375       0.15366870
V       -1.78015692       8.42349297       2.14220205      -8.99223195       0.01819347      -0.02732449      -0.01384992
V       -2.62775637       7.23285987       4.22360365      -8.94994282       0.01706930      -0.03138991       0.02068349
V       -3.45244308       6.02196329       6.27977557      -8.91656110      -0.03900978      -0.00028680       0.04879404
V       -4.24656558       4.85289301       8.35192634      -8.73818004      -0.03641433       0.02957416       0.00835739
V        0.76617512      -5.93606900      10.43512701      -8.90996698       0.00606680       0.05435282       0.07266852
V       -0.10294903      10.77923428       2.13540764      -8.93581206       0.03538169       0.08478784       0.09356427
V       -0.93622011       9.60819344       4.21669857      -8.94437504       0.02993191      -0.02167109       0.02593059
V       -1.76844094       8.41403801       6.28531919      -8.95255956      -0.02991291      -0.04053630       0.04394437
V        1.62367982      -4.72119367       8.36538851      -8.99482691      -0.06393878      -0.03389652       0.03501542
V        4.13010253       2.41517648       0.09670920      -8.94915380       0.00991353       0.08532364       0.04685680
V        3.29046864       1.25281080       2.19648736      -8.91846699       0.02917989       0.04447816      -0.03964440
V        2.43107677       0.06787908       4.26008948      -8.92825123       0.07623041       0.02320580      -0.06015469
V        1.59824268      -1.15115634       6.31381472      -8.94510440       0.03563580       0.01876557      -0.00127205
V        0.76699833      -2.35504084       8.37316384      -8.92160210       0.00868771       0.00331747      -0.02221798
V        3.29385734       4.80149486       0.09774918      -8.97819640       0.02041591       0.08562347      -0.01612269
V        2.47290887       3.68278630       2.19129157      -8.99470364      -0.17303600      -0.20880392       0.01397689
V        1.63056684       2.51418943       4.37980003      -8.87715560      -0.19666115      -0.25360730      -0.64446988
V        0.75560875       1.23853134       6.37167722      -8.91903341       0.03814164       0.08783438      -0.20329492
V       -0.07970521       0.02449541       8.38790049      -8.94158467       0.03292277       0.07762145      -0.04066451
V        2.47308747       7.19278175       0.10124716      -8.91471527      -0.03051521       0.07054428      -0.00952330
V        1.62516473       6.03621668       2.17613639      -8.99261292      -0.09248448      -0.02920930      -0.00757409
V        0.75913881       4.88060370       4.28116974      -8.92335605       0.00217267      -0.15495310      -0.09708976
V       -0.09650402       3.64041106       6.34863927      -8.93507004       0.09127295      -0.00910486      -0.05617368
V       -0.92439309       2.42218074       8.39103516      -8.93899364      -0.00071338       0.03140679      -0.02358149
V       -2.60739200       3.60772219      10.43196612      -8.94103269      -0.04225291       0.06269760      -0.02302580
V        0.76906889       8.41021895       2.15980062      -8.93237862      -0.02778562       0.00857347       0.00667788
V       -0.08242025       7.23826154       4.23728196      -8.91476890      -0.01980849      -0.04298857       0.00131740
V       -0.92092264       6.03352544       6.30601322      -8.97178321      -0.01911857      -0.03959135      -0.00398285
V       -1.75544684       4.80868694       8.37396752      -8.91855825      -0.05846708       0.00639130       0.00485326
V        3.29853804      11.97502246       0.10398851      -9.11170870      -0.06911224      -0.01989947      -0.01146620
V        6.66718481      -1.15523378       2.15735103      -8.94844319       0.01991156       0.02276933       0.00901094
V        1.60759076       9.59061289       4.21133319      -8.95310648      -0.00732313       0.01625191       0.02252812
V        4.16413149      -4.72208436       8.37597706      -9.23825849      -0.06915620      -0.01631212       0.01581785
V        6.66828221       2.42452221       0.09485923      -9.06014451       0.00605202      -0.02571118       0.02374250
V        5.80530881       1.22207699       2.14748272      -8.98270048       0.10916947       0.04724500       0.05960683
V        4.97542561       0.03640323       4.22552387      -8.95655980       0.07999815       0.03510769       0.04175064
V        4.16325143      -1.17014762       6.30645105      -9.02608327      -0.02109890       0.02713468       0.03916928
V        5.82146064       4.80607281       0.08639083      -8.97634804       0.00788458       0.01537106       0.01899364
V        4.97352295       3.61629128       2.15380624      -8.92362767       0.04761042       0.04479332       0.04543102
V        4.14802111       2.42726714       4.23378563      -8.90247323      -0.06792369       0.04973096       0.04598719
V        3.32407522       1.23155773       6.34257606      -8.96413821      -0.07089941       0.09736678      -0.10226157
V        2.46194715       0.03230647       8.37364453      -8.95160589      -0.03546071       0.03031891       0.01117888
V        4.99095906       7.20177935       0.09427429      -8.92169677      -0.03060573       0.03568280       0.02367765
V        4.15363386       6.01345852       2.15102958      -8.93883515      -0.01344606       0.03157169       0.04608428
V        3.30802607       4.84835339       4.22859124      -8.95142711      -0.04099795      -0.09209168       0.05889150
V        2.46328249       3.64915174       6.36490659      -8.94729670      -0.04768045      -0.06254257      -0.20517453
V        1.63518015       2.42990159       8.40655014      -8.94615549      -0.04272959       0.01481323      -0.08396316
V        4.15550804       9.58917965       0.10394321      -8.92660497      -0.03809680       0.01890721       0.00753240
V        3.31262661       8.39846673       2.15000520      -8.93023458      -0.04370535       0.04500706       0.03110969
V        2.46391126       7.21996872       4.22565828      -8.97823525      -0.04219664      -0.02073510       0.03464323
V        1.62349672       6.02344487       6.31949528      -9.04858716      -0.02223314      -0.04872945      -0.00620316
V        0.77769854       4.81635102       8.39859528      -9.11556331      -0.03200782      -0.01973513      -0.04858811
V       10.07224142       0.05958453       0.13422082      -9.27109230      -0.11966832      -0.06367166      -0.09127927
V        9.21147351      -1.14110986       2.17074454      -8.98305943       0.01149251       0.01855208       0.02373592
V        8.37412705      -2.35407254       4.22108538      -8.97618182      -0.00497270       0.05972915       0.04045040
V        7.53344364      -3.54964418       6.30827799      -9.23693911      -0.01611116       0.02463815      -0.00912355
V        8.34702150       1.23822911       2.16674167      -9.08272525       0.01697985       0.00463258       0.00467422
V        7.50147874       0.01898596       4.21510302      -8.90592616       0.07098045       0.04845547       0.06195880
V        8.35824267       4.81861873       0.07361761      -9.23894005      -0.00206063      -0.00378384       0.05856078
V        7.49285440       3.62052887       2.16175583      -9.10212284       0.06107261       0.03616836       0.03706298
V        6.66388732       2.41085850       4.22515406      -8.95393974       0.01138902       0.05914165       0.08099751
V        5.85249646       1.24029651       6.32730049      -8.77833934      -0.00150755       0.06507968       0.06647617
V        7.52898594       7.21589974       0.08543591      -8.98782315       0.01831336       0.01322428       0.00405057
V        6.66858190       6.01767541       2.15483264      -8.92302396      -0.01547726       0.02509533       0.05834228
V        5.83301177       4.81710678       4.20483718      -8.91792535       0.01587463       0.01668503       0.07962227
V        4.96270049       3.63102905       6.24470446      -8.75218301       0.04823460       0.04412761       0.11742934
V        4.23602036       2.41033831       8.37738902      -8.73902920      -0.06716842       0.07057365      -0.02218528
V        6.68290373       9.61299947       0.11537858      -8.96526309      -0.03036037      -0.01548222      -0.02918850
V        5.83831106       8.40183085       2.15851805      -8.92104189      -0.00510242       0.04091962       0.02662746
V        5.00540183       7.20084995       4.20384344      -8.92947632      -0.00960259       0.02444209       0.06299869
V        4.16028847       6.00768046       6.29304039      -9.09523027      -0.01066931      -0.00142443       0.04366190
V        3.32746430       4.81526805       8.39278697      -9.08865647      -0.00043705      -0.02339734      -0.03129265
Cr      -0.86395488       2.38615254       0.19666140      -7.76904941       0.06654051       0.03017547       0.04016621
Cr      -4.28241738      -2.35875523       8.36907453      -7.81701654      -0.02371835       0.08774319      -0.02068531
Cr      -1.78954843       4.83954827       0.06208906      -7.87589171       0.09056310       0.01596337       0.12221662
Cr       2.47303632       7.18460419       8.38508178      -7.80494749      -0.04159030       0.01997207      -0.03927277
Cr       9.19681886       2.42598165       0.11104480      -7.79349173       0.00190047       0.01053741       0.01779669
Ti       5.00794513      -3.53965323       6.30729168      -8.19176381      -0.05726629      -0.00692363       0.01423331
Ti       3.31083320      -2.35837211       8.36936599      -8.21572695      -0.05355831      -0.02271833       0.03093732
Ti       6.69151315      -1.16890816       6.30910192      -8.22784753      -0.02331779       0.05002839       0.01906714
Ti       5.82693079      -2.35225529       8.34355457      -8.47174707      -0.05183255       0.05233037       0.01401787
Ti       4.98320746      -0.02114063       8.35457958      -8.04646234      -0.03781183       0.06022419       0.07731838
