127
Lattice="12.044405702 -0.004505072 0.000251258 -0.004506835 12.056999608 0.003663643 0.000253414 0.003660859 12.047399059" Properties=species:S:1:pos:R:3:forces:R:3 stress="0.0017469047816978357 -0.00011599220559541447 -0.00014008443082132386 -0.00011599220559541447 0.001372894830347533 -0.00010908285499306171 -0.00014008443082132386 -0.00010908285499306171 0.004592477448788398" free_energy=-1139.04797657 energy=-1139.01536548 pbc="T T T"
Cr       3.00548000       9.04916000      12.04088000       0.00027500      -0.00001100       0.00001900
Cr       9.02220000       3.08466000       3.07197000       0.00004800       0.00077100       0.00002700
Ti       3.01893000       6.03235000       9.01729000       0.00074800       0.00085500      -0.00074200
Ti       9.02531000      12.05569000       9.14824000       0.00043400       0.00034700       0.00040000
V        0.03869000       0.00037000       0.04160000       0.00031800      -0.00001000       0.00051400
V        1.51933000       1.49010000       1.51401000      -0.00042300      -0.00045000      -0.00005400
V        0.08417000      12.05425000       3.01542000       0.00152700      -0.00001000      -0.00081300
V        1.50090000       1.49547000       4.51855000      -0.00032100      -0.00076800      -0.00078900
V       12.00453000       0.00318000       6.00228000      -0.00030500       0.00002400       0.00003200
V        1.40272000       1.61429000       7.43277000      -0.00006700      -0.00028300      -0.00045100
V       11.97288000       0.00634000       9.07293000      -0.00024700       0.00032800      -0.00019300
V        1.44758000       1.57491000      10.58594000      -0.00012400      -0.00003900       0.00034800
V        0.01137000       3.02907000       0.01601000      -0.00037200      -0.00069800       0.00004200
V        1.52884000       4.53463000       1.48028000      -0.00027800       0.00010600      -0.00019900
V        0.01633000       2.99734000       3.03543000      -0.00055800      -0.00085500      -0.00086600
V        1.50723000       4.52854000       4.46913000      -0.00033500      -0.00019200      -0.00071800
V       12.02393000       3.00251000       6.00979000      -0.00077600      -0.00083200      -0.00033100
V        1.47005000       4.52166000       7.47479000      -0.00029600       0.00014800      -0.00025600
V       12.02503000       3.02931000       9.04297000      -0.00063300      -0.00014200      -0.00105400
V        1.47325000       4.51809000      10.56388000       0.00013000       0.00020200      -0.00025800
V        0.01141000       6.05006000      12.02091000      -0.00054000      -0.00072600       0.00028600
V        1.54612000       7.56469000       1.45252000       0.00009000      -0.00046400       0.00058200
V        0.00673000       6.04931000       3.00715000      -0.00109400      -0.00082100      -0.00076900
V        1.51348000       7.54368000       4.45263000       0.00023400      -0.00045700       0.00061100
V        0.01937000       6.02195000       5.98294000      -0.00023400      -0.00067900       0.00038100
V        1.50625000       7.55611000       7.46541000       0.00054400      -0.00001400       0.00036400
V        0.01707000       6.02619000       9.02733000      -0.00026900      -0.00032000      -0.00085500
V        1.51505000       7.58507000      10.58426000      -0.00007400      -0.00000100      -0.00042700
V        0.01278000       9.02846000      12.04889000       0.00004500       0.00063900       0.00008400
V        1.55980000      10.53709000       1.48284000      -0.00050500       0.00070500       0.00026500
V        0.00727000       9.05251000       3.01809000       0.00048400       0.00047800      -0.00065500
V        1.49478000      10.56984000       4.50477000       0.00058900       0.00021200      -0.00007700
V       12.02964000       9.07112000       5.98438000      -0.00022600      -0.00050300       0.00055200
V        1.40766000      10.46941000       7.42862000       0.00041700      -0.00017000       0.00033800
V        0.00674000       9.05570000       9.03086000       0.00022900      -0.00024000      -0.00050400
V        1.49680000      10.48237000      10.60083000      -0.00017600       0.00049900       0.00026600
V        3.00824000       0.02577000      12.04681000       0.00008700       0.00016500       0.00001400
V        4.50118000       1.48634000       1.50981000       0.00067700       0.00014900       0.00049100
V        3.01309000      12.05516000       3.03033000      -0.00009800      -0.00016700       0.00010900
V        4.52762000       1.48902000       4.50964000       0.00069700      -0.00037400      -0.00004000
V        3.01703000       0.00098000       5.94892000       0.00023800      -0.00053200       0.00073700
V        4.61932000       1.60336000       7.42770000       0.00065300      -0.00009400      -0.00055800
V        4.56428000       1.57178000      10.58376000       0.00006900       0.00009700      -0.00032100
V        3.01004000       3.00466000       0.00689000       0.00016300       0.00035600      -0.00012600
V        4.50640000       4.52369000       1.48286000       0.00035600       0.00069200       0.00010200
V        3.01529000       3.00729000       2.98579000       0.00013900      -0.00038800      -0.00040300
V        4.52338000       4.52205000       4.46382000       0.00019500       0.00008400      -0.00048100
V        3.01416000       3.04051000       5.96989000       0.00033100      -0.00012900      -0.00070100
V        4.55842000       4.51883000       7.47169000       0.00071200       0.00028100      -0.00062000
V        3.01066000       3.09353000       9.01915000       0.00030800       0.00004600      -0.00096600
V        4.55303000       4.51281000      10.56790000      -0.00004900       0.00065600       0.00005200
V        3.01305000       6.01682000      12.03884000       0.00063300       0.00042800       0.00019800
V        4.47651000       7.54603000       1.45550000       0.00033300      -0.00043800       0.00070800
V        3.01461000       6.03110000       2.95517000       0.00014600      -0.00013200       0.00008900
V        4.52265000       7.53113000       4.44828000      -0.00014500      -0.00030500       0.00069500
V        3.01783000       6.03450000       5.96990000       0.00042600      -0.00006800       0.00047500
V        4.55277000       7.54752000       7.46792000       0.00007200       0.00032400       0.00023300
V        4.51299000       7.57546000      10.58746000       0.00060100       0.00032400       0.00005700
V        4.45028000      10.53195000       1.48171000       0.00081300       0.00037300       0.00061200
V        3.01369000       9.04709000       3.00002000       0.00034600      -0.00036500       0.00054500
V        4.52846000      10.56375000       4.50708000       0.00004200      -0.00015100       0.00061000
V        3.01589000       9.02873000       5.96108000       0.00033900      -0.00048700       0.00060100
V        4.60991000      10.46245000       7.42703000      -0.00010500      -0.00017100       0.00046900
V        3.01085000       8.98969000       8.99192000       0.00071600       0.00023800      -0.00061500
V        4.50463000      10.46500000      10.59269000       0.00061100       0.00015500      -0.00020000
V        5.96143000      12.04947000       0.03203000       0.00019900       0.00006400      -0.00000300
V        7.44025000       1.69437000       1.69980000      -0.00060800       0.00193300       0.00032800
V        5.94309000      12.05291000       2.99866000      -0.00127400       0.00023500      -0.00015000
V        7.63724000       1.44389000       4.49219000      -0.00055100       0.00065600      -0.00016100
V        6.06571000      12.05141000       5.99645000      -0.00039600      -0.00006900       0.00080000
V        7.52268000       1.53026000       7.52864000       0.00063600       0.00017100      -0.00046900
V        6.07849000      12.05183000       9.06586000       0.00028300       0.00013200      -0.00080200
V        7.44816000       1.59016000      10.61436000       0.00088800       0.00064000      -0.00019700
V        6.00857000       3.03746000       0.01793000       0.00041900       0.00046000       0.00032000
V        7.52400000       4.53178000       1.53157000       0.00009800      -0.00024800       0.00060700
V        6.00792000       3.00008000       3.02988000       0.00046300       0.00042700      -0.00050600
V        7.55652000       4.46732000       4.53261000       0.00006300      -0.00013300      -0.00037800
V        6.04531000       2.99813000       6.00473000       0.00031900      -0.00023900      -0.00019600
V        7.53521000       4.51564000       7.52937000      -0.00027700       0.00010700      -0.00059100
V        6.03433000       3.02555000       9.03443000       0.00062600       0.00063700      -0.00139300
V        7.52710000       4.53983000      10.51949000       0.00029400       0.00094500       0.00002900
V        6.02143000       6.01870000      12.04000000       0.00064100       0.00011600       0.00058700
V        7.51695000       7.48691000       1.50083000       0.00010600       0.00051400       0.00029900
V        6.02714000       6.01684000       2.99326000       0.00073500      -0.00010400       0.00011100
V        7.53231000       7.53200000       4.54673000      -0.00046400      -0.00021400       0.00052600
V        6.01496000       6.02267000       5.98879000      -0.00056400      -0.00064000       0.00041200
V        7.50496000       7.53125000       7.52131000      -0.00048300      -0.00058700       0.00074000
V        6.01287000       6.02999000       9.01727000      -0.00001700      -0.00005000      -0.00064600
V        7.52087000       7.50642000      10.50276000      -0.00015400       0.00011900       0.00023200
V        5.99618000       9.00206000      12.04515000       0.00019100       0.00036800       0.00018200
V        7.31589000      10.33785000       1.62254000      -0.00111000      -0.00011500       0.00039100
V        6.00696000       9.03243000       3.02135000      -0.00089700      -0.00065600       0.00010000
V        7.61979000      10.65386000       4.47196000      -0.00124800      -0.00003300       0.00011600
V        6.04713000       9.05352000       5.99484000      -0.00075800      -0.00059100       0.00098000
V        7.51767000      10.52737000       7.52136000       0.00001800       0.00018300       0.00040900
V        6.01863000       9.03025000       9.01826000      -0.00061600       0.00017600      -0.00047100
V        7.42806000      10.45479000      10.60700000       0.00028000      -0.00034900       0.00050800
V       10.61207000       1.62809000       1.73363000       0.00085900       0.00074800       0.00028500
V       10.44214000       1.44690000       4.50003000       0.00003800       0.00030800      -0.00051300
V        9.03465000       0.00234000       6.15238000       0.00009400       0.00060500       0.00124300
V       10.54122000       1.53399000       7.53172000      -0.00086100      -0.00021300      -0.00069100
V       10.59979000       1.59385000      10.62837000      -0.00029000       0.00020600       0.00003100
V        9.01735000       3.05033000       0.01967000      -0.00017400       0.00015900       0.00004800
V       10.50740000       4.47285000       4.55388000      -0.00124700      -0.00091400      -0.00038400
V        9.02965000       2.98076000       6.06404000      -0.00045200      -0.00019500       0.00028800
V       10.52449000       4.49383000       7.53507000      -0.00071300      -0.00007000      -0.00058600
V        9.02750000       3.00108000       9.07376000       0.00003900       0.00047700      -0.00073700
V       10.52693000       4.54199000      10.50755000      -0.00042700       0.00022000      -0.00001600
V        9.01586000       6.04679000      12.02265000       0.00022200      -0.00002600       0.00065500
V       10.54132000       7.52797000       1.49754000      -0.00063800       0.00016100      -0.00010400
V        9.01779000       6.05225000       3.05833000      -0.00080600      -0.00122400      -0.00022700
V       10.52610000       7.54237000       4.51823000      -0.00072100      -0.00038500       0.00052100
V        9.01736000       6.00810000       6.01216000      -0.00094600      -0.00105700       0.00067300
V        9.01480000       6.01210000       9.01728000      -0.00054000      -0.00054400      -0.00042100
V       10.53521000       7.51652000      10.53012000      -0.00044500      -0.00006600       0.00018500
V        9.02752000       8.96662000       0.01484000       0.00013900       0.00033800       0.00045800
V       10.72592000      10.37619000       1.63239000       0.00154900       0.00038500       0.00031900
V        9.03190000       8.95111000       3.00752000      -0.00031100       0.00027500      -0.00036400
V       10.44751000      10.66649000       4.47295000       0.00053200       0.00034400      -0.00037000
V        9.01671000       9.08908000       6.00214000      -0.00049600      -0.00040600       0.00099100
V       10.54302000      10.56164000       7.52130000      -0.00017300       0.00005200       0.00024700
V        9.01744000       9.06079000       9.06663000       0.00000800      -0.00020200       0.00012800
V       10.62380000      10.46652000      10.61108000       0.00004900      -0.00003700       0.00090800
W       10.52518000       4.53976000       1.52930000       0.00031500       0.00074700      -0.00081200
W       10.52715000       7.53571000       7.51961000      -0.00044200      -0.00063700       0.00065800
Zr       3.00774000       0.01994000       8.94107000       0.00012700      -0.00072000      -0.00105200
Zr       9.00456000      12.00684000       0.35339000       0.00129900       0.00062500       0.00006300
127
Lattice="12.044405702 -0.004505072 0.000251258 -0.004506835 12.056999608 0.003663643 0.000253414 0.003660859 12.047399059" Properties=species:S:1:pos:R:3:forces:R:3 stress="0.0010893742783042862 -6.070491775834057e-05 -0.00010327200999686439 -6.070491775834057e-05 0.002397563383543788 0.00038821562612081277 -0.00010327200999686439 0.00038821562612081277 0.0032554588128964413" free_energy=-1138.77479125 energy=-1138.74127372 pbc="T T T"
Cr       3.00544000       9.02975000       0.01531000      -0.00057600       0.00619100       0.00200000
Cr       9.02258000       3.10633000       3.05561000      -0.00172100       0.03319700       0.00557800
Ti       3.01989000       6.02414000       9.02681000       0.00102600       0.00277700       0.00314200
Ti       9.03152000       0.03806000       9.09607000       0.00001600      -0.01400300       0.01175200
V        0.04652000       0.01321000       0.01592000      -0.02104700      -0.00435600       0.02547900
V        1.51439000       1.50850000       1.52749000       0.00678600       0.00536400      -0.00997700
V        0.08215000      12.05761000       3.01814000       0.04483200       0.03976700      -0.00031600
V        1.49519000       1.51530000       4.50025000       0.00671300      -0.00997900       0.00999100
V       12.02069000       0.00621000       6.00208000      -0.03420900      -0.01947800      -0.02708800
V        1.42318000       1.57642000       7.42463000      -0.00601300      -0.00618500      -0.00187900
V       11.98293000       0.00666000       9.05071000       0.00242000      -0.00252400       0.00181900
V        1.45478000       1.55376000      10.60581000      -0.00726800       0.00055800      -0.00191300
V        0.00471000       3.03306000       0.02230000       0.00012000       0.00497500      -0.00587100
V        1.51902000       4.53992000       1.48694000       0.00303000       0.00984500       0.00447400
V       12.03908000       3.00635000       3.02501000       0.01311000       0.02018300       0.00079300
V        1.49218000       4.52468000       4.49107000       0.01086100       0.00343500      -0.00353900
V       12.01782000       3.00779000       5.99510000       0.00716400      -0.00693800       0.00505100
V        1.47271000       4.49800000       7.48958000       0.00541900      -0.00528000       0.00375100
V       12.04228000       3.02561000       9.02994000      -0.00163100      -0.00375600       0.00293800
V        1.48178000       4.50844000      10.56999000      -0.00016400      -0.00297700      -0.00044700
V        0.00880000       6.05734000      12.04236000       0.00506300       0.00374400      -0.00923100
V        1.53748000       7.54821000       1.47856000       0.00605500       0.01687700      -0.00218000
V       12.03136000       6.07861000       3.01990000       0.01623000       0.00339700       0.00220100
V        1.50903000       7.52398000       4.48168000       0.00283400       0.01472100      -0.00005600
V        0.01064000       6.02030000       5.98791000       0.01336800       0.00996200       0.01098300
V        1.50094000       7.55071000       7.48737000       0.00036500      -0.00899800       0.00487100
V        0.01976000       6.01528000       9.04156000       0.00890800      -0.00016800       0.00183000
V        1.51453000       7.57949000      10.60091000       0.00247600       0.00317400       0.00204500
V        0.01472000       9.02058000      12.05005000      -0.00736200       0.03428600       0.01053600
V        1.57196000      10.53104000       1.49781000       0.00012900      -0.00209600       0.00010300
V        0.02712000       9.07556000       3.02859000      -0.04895400       0.00797300      -0.00977800
V        1.51951000      10.56547000       4.50050000      -0.02915100      -0.00629000       0.00488000
V        0.00896000       9.05689000       6.00520000      -0.02997000       0.03550800      -0.02175900
V        1.41780000      10.47457000       7.44035000      -0.01614800      -0.01044100      -0.01639600
V        0.00015000       9.03863000       9.03653000      -0.00134300       0.01285900      -0.00468300
V        1.49649000      10.46620000      10.61785000      -0.00413500       0.00286500       0.00422700
V        3.00940000       0.01680000       0.02939000      -0.00184000       0.00372200      -0.01526600
V        4.50935000       1.50949000       1.52348000      -0.00956500       0.00348100      -0.00942300
V        3.01673000       0.02559000       3.02153000      -0.00046700      -0.01653600       0.00969900
V        4.53384000       1.51491000       4.49349000      -0.00837000      -0.01190700       0.01125900
V        3.01551000       0.00656000       5.94414000      -0.00049100      -0.01633700       0.00954000
V        4.60071000       1.56969000       7.42258000       0.00591300      -0.00396700      -0.00250700
V        4.55843000       1.55693000      10.60140000       0.00481300      -0.00117500      -0.00369500
V        3.01177000       3.00921000       0.01139000      -0.00015900      -0.00106200       0.00269900
V        4.51778000       4.53516000       1.48961000      -0.00391300       0.00854400       0.00478100
V        3.01558000       3.03390000       2.98801000       0.00054300       0.00160100      -0.00248500
V        4.53873000       4.52397000       4.48531000      -0.00793800       0.00286700      -0.00425100
V        3.01498000       3.02860000       5.98588000       0.00042000      -0.00969800      -0.00017400
V        4.55917000       4.49966000       7.48575000      -0.00398100      -0.00530900       0.00379900
V        3.01264000       3.06433000       9.02991000       0.00004000      -0.01096900       0.00451100
V        4.54568000       4.50753000      10.57532000       0.00095000      -0.00313900       0.00029800
V        3.01339000       6.01120000      12.04519000       0.00014000      -0.00227400       0.00132300
V        4.48178000       7.53746000       1.47949000      -0.00678300       0.01594900      -0.00013600
V        3.01254000       6.01549000       2.98481000       0.00129200       0.00917500       0.00238600
V        4.52049000       7.51398000       4.47638000      -0.00289700       0.01628100      -0.00013600
V        3.01581000       6.01929000       5.99995000       0.00151000      -0.00589600       0.00961100
V        4.55715000       7.54725000       7.48976000       0.00146900      -0.00940700       0.00343100
V        4.51407000       7.57432000      10.60565000      -0.00109700       0.00388900       0.00351600
V        4.43789000      10.53182000       1.49699000      -0.00244100      -0.00198500       0.00100500
V        3.01108000       9.01112000       3.02071000      -0.00009200       0.01228700       0.00825000
V        4.49990000      10.56301000       4.50236000       0.02757300      -0.00538800       0.00744200
V        3.01394000       9.02125000       5.98111000      -0.00078900       0.00082400      -0.00111600
V        4.59893000      10.46792000       7.43924000       0.01516700      -0.00651000      -0.01638700
V        3.01144000       9.00276000       9.01132000      -0.00056900      -0.02303200      -0.00010400
V        4.50899000      10.45453000      10.60983000       0.00075300       0.00122400       0.00395400
V        5.96079000       0.01429000       0.00125000       0.01953400      -0.00528200       0.02698700
V        7.48372000       1.67761000       1.68750000      -0.03745000       0.04865200      -0.00261100
V        5.94543000       0.00590000       3.00283000      -0.04610000       0.03826500       0.00179300
V        7.63304000       1.47069000       4.48535000      -0.00026200       0.02108500       0.01334500
V        6.05132000       0.00381000       5.99910000       0.03396200      -0.02247000      -0.02761900
V        7.52207000       1.55573000       7.49873000      -0.00503200       0.00173500       0.00511200
V        6.07333000      12.05720000       9.04479000      -0.00431200      -0.00139300       0.00128600
V        7.43528000       1.65170000      10.54994000       0.01189200      -0.00945700       0.00734600
V        6.01919000       3.04845000       0.02888000      -0.00218400       0.00198200      -0.00846500
V        7.53011000       4.56824000       1.53623000       0.00225500       0.01542500       0.00141000
V        6.03335000       3.02089000       3.01602000      -0.01450900       0.01651100       0.00236300
V        7.56211000       4.51413000       4.50998000       0.00276900       0.00426800       0.00316300
V        6.05288000       3.00996000       5.98864000      -0.00580000      -0.00544000       0.00494500
V        7.53329000       4.52930000       7.51297000      -0.00034500       0.00649400       0.00756100
V        6.01896000       3.03004000       9.02386000       0.00316400      -0.00357700       0.00242600
V        7.52229000       4.55882000      10.53824000       0.00331000       0.00875200      -0.01092300
V        6.02394000       6.03014000       0.01698000      -0.00665400       0.00337100      -0.01101000
V        7.53732000       7.58586000       1.53729000      -0.02862400      -0.01704800      -0.04185800
V        6.04631000       6.06165000       3.00134000      -0.01456100      -0.00072500       0.00311400
V        7.54374000       7.62613000       4.52117000      -0.02388700      -0.01248600       0.02876200
V        6.02377000       6.02759000       5.99255000      -0.01370700       0.00903700       0.00988800
V        7.50653000       7.51138000       7.52024000      -0.00021300       0.02066900       0.00503800
V        6.01190000       6.02551000       9.03101000      -0.00831700      -0.00010400       0.00267400
V        7.52012000       7.49816000      10.52872000       0.00258300       0.02193100      -0.01328700
V        5.99459000       9.00685000      12.04472000       0.00683400       0.03343700       0.01286800
V        7.25461000      10.44472000       1.51157000       0.04918400       0.01244700       0.10228500
V        5.98508000       9.06520000       3.03093000       0.04844200       0.00849400      -0.00771000
V        7.48918000      10.64728000       4.56792000       0.17004000       0.06892700      -0.13865000
V        6.01831000       9.03853000       6.01639000       0.02698600       0.03739200      -0.01924100
V        7.52351000      10.52378000       7.53214000      -0.00529500       0.00202900      -0.01958100
V        6.02679000       9.01758000       9.02363000      -0.00141800       0.01463400      -0.00413800
V        7.43859000      10.44954000      10.54370000      -0.01064100       0.00918700       0.01542800
V       10.57193000       1.61624000       1.71520000       0.04078200       0.04841600       0.00050500
V       10.44322000       1.46802000       4.48866000       0.00167200       0.02135200       0.01217600
V        9.03477000       0.00388000       6.13526000      -0.00007700       0.05328800       0.05821600
V       10.54545000       1.55185000       7.49974000       0.00597500       0.00157500       0.00697700
V       10.61912000       1.64709000      10.56429000      -0.00988000      -0.00969400       0.00747900
V        9.01714000       3.07347000       0.01559000       0.00127300       0.01545700      -0.00813300
V       10.50010000       4.51388000       4.53524000      -0.00247400       0.00463100       0.00477400
V        9.03068000       3.00654000       6.03206000       0.00064100       0.02116800       0.01316900
V       10.52500000       4.50054000       7.51906000       0.00369600       0.00647900       0.00858500
V        9.02929000       3.03907000       9.04424000       0.00136600       0.01115400       0.00262700
V       10.53279000       4.55625000      10.52129000      -0.00120000       0.00968400      -0.00870500
V        9.01317000       6.08169000       0.01252000       0.00009000       0.01082700      -0.02302100
V       10.51606000       7.61155000       1.53674000       0.03359900      -0.01217800      -0.04829800
V        9.01688000       6.12544000       3.04729000       0.00042500       0.07333600       0.00873300
V       10.50881000       7.63121000       4.49440000       0.03361800      -0.01664000       0.03482200
V        9.01554000       6.04399000       5.98628000       0.00207500       0.00200600       0.01295600
V        9.01478000       6.00715000       9.02879000       0.00002400       0.01219400      -0.00309700
V       10.53441000       7.50369000      10.55391000      -0.00096900       0.02243200      -0.01479500
V        9.02633000       9.02165000       0.00696000      -0.00066400      -0.00954700       0.03233900
V       10.78702000      10.46601000       1.51744000      -0.05153900       0.01350100       0.10802500
V        9.02610000       9.32290000       2.99622000      -0.00027700      -0.89848000      -0.04160700
V       10.56711000      10.65283000       4.56548000      -0.16620800       0.08073300      -0.14447600
V        9.01851000       9.10193000       6.01138000      -0.00088700       0.01750900      -0.04182400
V       10.53947000      10.55476000       7.53279000       0.00152700       0.00017000      -0.02304700
V        9.01938000       9.03056000       9.06321000      -0.00050900       0.01782100      -0.00014400
V       10.61554000      10.45469000      10.54887000       0.00744400       0.00928900       0.01545200
W       10.51922000       4.56977000       1.53312000      -0.00419100       0.01815000      -0.00048300
W       10.52596000       7.52171000       7.52138000      -0.00243200       0.01730700       0.00567400
Zr       3.00502000      12.04672000       8.97749000      -0.00184700      -0.00463200      -0.00810200
Zr       9.00964000      12.04318000       0.19667000       0.00087800       0.02251100       0.04536800
127
Lattice="12.044405702 -0.004505072 0.000251258 -0.004506835 12.056999608 0.003663643 0.000253414 0.003660859 12.047399059" Properties=species:S:1:pos:R:3:forces:R:3 stress="-7.235157378723872e-05 -1.0635531550505071e-05 -0.0001105371266193925 -1.0635531550505071e-05 0.00311517465378309 0.0006944240638366454 -0.0001105371266193925 0.0006944240638366454 0.0019121986678786022" free_energy=-1137.96753966 energy=-1137.93860855 pbc="T T T"
Cr       3.00523000       9.02715000       0.01609000      -0.00029100       0.00139100       0.00329700
Cr       9.02380000       3.07962000       3.05286000      -0.00063500       0.02564700      -0.00110700
Ti       3.01942000       6.02631000       9.02643000       0.00021300      -0.01105100      -0.00051600
Ti       9.03145000       0.04637000       9.08078000      -0.00083000      -0.01114500      -0.00509400
V        0.05539000       0.01659000       0.00517000      -0.01575800       0.00925000       0.00978800
V        1.50985000       1.50519000       1.53314000       0.00978800       0.00794800       0.00479000
V        0.05698000      12.03432000       3.01903000       0.03265100       0.02819900       0.00974700
V        1.49234000       1.51623000       4.49372000       0.00584600      -0.00801900      -0.00257300
V       12.04046000       0.01461000       6.01541000      -0.02321700      -0.01207500      -0.02544100
V        1.42844000       1.57811000       7.42778000      -0.00086000      -0.01296800      -0.00538200
V       11.98235000       0.00946000       9.04761000      -0.00047600      -0.00452600      -0.00313800
V        1.45894000       1.55647000      10.60670000      -0.01129200      -0.00828700       0.00553000
V        0.00352000       3.02982000       0.02533000       0.00048900       0.00558800      -0.00668400
V        1.51725000       4.53481000       1.48565000      -0.00174000       0.00900200       0.00437600
V       12.03353000       2.99054000       3.02413000       0.00799100       0.02560200      -0.00296400
V        1.48807000       4.51862000       4.49397000       0.00822600      -0.00159300       0.00257100
V       12.01638000       3.00861000       5.99245000       0.01522800      -0.00320800       0.00545900
V        1.47148000       4.50052000       7.48970000       0.00078400      -0.00867000       0.00078900
V        0.00011000       3.03470000       9.02758000       0.00056400      -0.00929400      -0.00117000