127
Lattice="12.091614014443511 -0.00041071459908877085 0.0006695360618873701 -0.0004106839850753486 12.089532370641614 0.00038327849287979614 0.0006695322856332959 0.0003832328764644084 12.094344108101494" Properties=species:S:1:pos:R:3:forces:R:3 energy=-1145.726605954218 free_energy=-1145.726605954218 stress="0.004868687325294826 0.00048701622110694504 0.0008603367462436386 0.00048701622110694504 0.005058356070346159 0.0002237485809555077 0.0008603367462436386 0.0002237485809555077 0.005570948159144079" pbc="T T T"
Cr       0.01720617       9.11007930       0.01061216       0.00274896       0.00233911       0.00059124
Cr       4.59740276       4.52982853       1.48428714       0.00089015       0.00270426      -0.00147824
Cr       4.54979344       7.56363300       1.47216391       0.00093757       0.00095704       0.00120827
Cr       9.09557702       3.14991610       5.95625784      -0.00166519      -0.00287114      -0.00038458
Ti       0.03907387       3.14368850       3.04335212       0.00475245      -0.00489691       0.00639878
Ti       1.50194840       7.54047913       4.52118866      -0.00102899      -0.00003932       0.00003009
Ti       2.98122363       0.02797573       6.02354285       0.00016008      -0.00354046       0.00096679
Ti       2.88181175       2.94122170       5.90333780      -0.00187551      -0.00247917      -0.00331487
Ti       3.04937559       9.12691430       6.13968789      -0.00192768      -0.00250455       0.00003395
Ti      10.56000825       1.57022697       7.51450849      -0.00229528       0.00043506       0.00107059
Ti       9.08875347       9.13721899       3.05642961       0.00138751      -0.00068378       0.00243143
V        0.02626789       0.01468731      -0.01915234       0.00099990       0.00170205      -0.00093116
V        1.55964975       1.49405710       1.48304705       0.00160205       0.00026607      -0.00010360
V        1.10406265       1.03933793       4.11271373       0.00280824      -0.00193750       0.00171625
V        0.04187024      -0.01026493       6.08877408      -0.00142873      -0.00151232       0.00138901
V        1.39337704       1.50832900       7.64503841       0.00013910      -0.00033885      -0.00288295
V        0.02814394      -0.02823051       9.10636808      -0.00106660      -0.00080031       0.00147182
V        1.55743609       1.48951033      10.62134633      -0.00149374       0.00177457      -0.00044589
V        0.02888529       2.93833724       0.03847082       0.00006630       0.00043900      -0.00011678
V        1.68695906       4.46005377       1.50352136      -0.00270959      -0.00027367       0.00201550
V        1.52501082       4.73084311       4.53559372      -0.00125148      -0.00409477      -0.00125561
V        0.04439208       3.02441813       5.99028722      -0.00041070      -0.00085449       0.00034517
V        1.46280950       4.54945270       7.54587936      -0.00062290       0.00115819      -0.00045456
V        0.03226046       3.03887548       9.07969721      -0.00106558       0.00183711      -0.00031041
V        1.64875866       4.43561078      10.47881329       0.00159164       0.00173360      -0.00098163
V        1.55601906       7.65316457       1.50206166       0.00068092       0.00300173       0.00086508
V       -0.06131484       6.01347658       3.00710701       0.00080466      -0.00440543      -0.00014562
V       -0.04734625       6.04445755       6.10228629      -0.00133572      -0.00059913       0.00151007
V        1.48094414       7.51900023       7.61604700      -0.00186870      -0.00033097       0.00125859
V        0.00317623       6.05475559       9.03180879      -0.00067865       0.00062521       0.00176613
V        1.57306504       7.64174868      10.56630774       0.00000274       0.00160615       0.00244897
V       -0.06398641       9.02890382       3.01961714      -0.00048294       0.00021590      -0.00012545
V        1.42997629      10.51714510       4.47619844      -0.00113322      -0.00103540      -0.00181882
V       -0.01250903       9.09394247       6.09325300      -0.00270730      -0.00118679       0.00112068
V        1.47989240      10.56008718       7.65481423      -0.00278711      -0.00291944       0.00132038
V        0.00839582       9.05323297       9.08581182      -0.00170010       0.00058739       0.00116087
V        1.51109065      10.54670856      10.65383105      -0.00070232       0.00067833      -0.00103185
V        3.04150383      -0.01036881       0.00915729       0.00034954       0.00053495      -0.00283873
V        4.52955866       1.52015856       1.46762354       0.00371204       0.00174825      -0.00320232
V        3.10795772       0.02796456       3.01601887       0.00206746      -0.00016045      -0.00262389
V        4.61784831       1.52720791       4.41046590      -0.00103628      -0.00022577      -0.00076011
V        4.50576143       1.54314986       7.62108381      -0.00312915      -0.00188100      -0.00181827
V        2.99821072       0.00105280       9.10026220      -0.00031690      -0.00045611      -0.00108678
V        4.52948109       1.50389596      10.60825093      -0.00098499       0.00215473      -0.00261883
V        3.09286095       3.03785560       0.00800793       0.00157365       0.00243872      -0.00372399
V        3.05749173       3.03567280       2.95587598       0.00115710      -0.00030975      -0.00011888
V        4.55873501       4.52008331       4.48952671       0.00022422       0.00109912      -0.00169885
V        4.52739899       4.52794849       7.53215920      -0.00039825      -0.00108292      -0.00173717
V        3.00311072       3.00259729       9.04811356      -0.00028407       0.00161049      -0.00086498
V        4.55111211       4.55073331      10.57211231       0.00058676       0.00042021      -0.00195609
V        3.13382715       6.05218204       0.00900176       0.00034803       0.00052327       0.00105207
V        3.12107956       6.03212939       2.92025960       0.00103094       0.00081524      -0.00032165
V        3.05895500       5.98772428       6.07811870       0.00200760      -0.00003843       0.00162974
V        4.56350463       7.48784079       7.62544599      -0.00146635      -0.00198930       0.00049236
V        3.01958837       6.04115796       9.05499248       0.00053809       0.00064405      -0.00075236
V        4.56087146       7.55388358      10.55765713       0.00021174       0.00238786      -0.00005003
V        3.07258366       9.03479842       0.00858745      -0.00029564       0.00203506       0.00137017
V        4.53728417      10.58942982       1.47272344       0.00210753       0.00161798      -0.00086081
V        3.09014322       9.07609140       2.95787824       0.00054318      -0.00065665      -0.00029517
V        4.59583730      10.59799295       4.45707084       0.00131498      -0.00151027      -0.00036939
V        4.61023130      10.63189014       7.68128107      -0.00178210      -0.00323100       0.00069004
V        3.02069214       9.06240334       9.09934988      -0.00106914       0.00012611       0.00090912
V        4.51506627      10.56102782      10.61803876      -0.00105129       0.00250231       0.00028299
V        6.04892108      -0.00696130       0.01961461       0.00166263       0.00227612      -0.00094628
V        7.56072062       1.51613483       1.51143092       0.00131732       0.00153640      -0.00216331
V        6.05322833       0.02452884       2.99018538       0.00222454       0.00015735      -0.00064778
V        7.56780059       1.58169718       4.50345620      -0.00162171       0.00011307      -0.00442251
V        5.96780032      -0.04025185       5.97475500      -0.00281175      -0.00203130      -0.00135701
V        5.99488873      -0.07129106       9.17015864      -0.00202098      -0.00037754      -0.00118585
V        7.52665285       1.49936033      10.67489994      -0.00094301       0.00122458      -0.00210326
V        6.04178646       3.04678250       0.03305336       0.00224818       0.00154577      -0.00221468
V        7.56810030       4.53807502       1.52519556       0.00152762       0.00199897      -0.00157903
V        6.03103712       3.06455320       2.96015652       0.00269391       0.00088688      -0.00318048
V        7.57201621       4.52394822       4.55563220       0.00041675       0.00014132      -0.00100519
V        5.93942476       3.09164096       5.94692120      -0.00158795      -0.00198793      -0.00267536
V        7.55957191       4.59608170       7.53108493      -0.00138504      -0.00216605      -0.00050204
V        5.95419427       3.13167359       9.16173291      -0.00140860      -0.00021620      -0.00168375
V        7.51046470       4.57780509      10.58775023       0.00075880       0.00138184      -0.00086186
V        6.02138794       6.05331581       0.03776028       0.00177595       0.00131158       0.00083393
V        7.55728075       7.53419355       1.49965488       0.00089935       0.00069450       0.00058884
V        6.06341656       6.04124075       2.97616097       0.00026696       0.00033074       0.00087003
V        7.57813562       7.52640781       4.55900055       0.00099865      -0.00134239       0.00188449
V        6.07270521       6.03754048       6.05069227      -0.00014892      -0.00118080       0.00008103
V        7.55620265       7.54518923       7.56951365      -0.00114273      -0.00075306       0.00141952
V        6.04888760       6.06374763       9.06880007       0.00076363      -0.00009838       0.00011198
V        7.54556817       7.55105114      10.61731001      -0.00025817       0.00151013       0.00062479
V        6.03701382       9.03476371       0.03349722       0.00156556       0.00215904       0.00131541
V        7.52818184      10.59540989       1.47972771       0.00016169       0.00070491      -0.00007069
V        6.07753786       9.05187270       2.98349266       0.00106681      -0.00034240       0.00098674
V        7.51096794      10.62203329       4.56288823      -0.00047075      -0.00003678       0.00010387
V        6.08296125       9.06002376       6.05591277       0.00065375      -0.00184287       0.00156046
V        7.53139872      10.50671375       7.58355656      -0.00192632      -0.00095463      -0.00006476
V        6.05570114       9.03503976       9.11167129      -0.00019914      -0.00027931       0.00134365
V        7.56003503      10.53675705      10.63412462      -0.00094046      -0.00041371       0.00045970
V        9.07422936      -0.02910818       0.07762342       0.00046758       0.00281972      -0.00073073
V       10.71476608       1.33232696       1.70470205      -0.00017909      -0.00086374      -0.00276725
V        8.96618777       0.03187102       3.02000343      -0.00303196      -0.00037210      -0.00123415
V       10.52692380       1.53150136       4.55860286       0.00159108      -0.00077125       0.00109148
V        9.10747559      -0.10846552       5.90068329      -0.00136973      -0.00191586       0.00146261
V        9.08699723      -0.11175233       9.21026105       0.00066327       0.00140731      -0.00026211
V        9.04631448       3.00578488       0.04589342       0.00187840       0.00188981      -0.00139594
V       10.41555756       4.46101331       1.53843141       0.00569830      -0.00165498       0.00199371
V        9.08327610       2.99390549       3.00135412       0.00077720      -0.00058630      -0.00010688
V       10.48592258       4.52172708       4.62745638       0.00069486      -0.00080197       0.00050157
V       10.54559622       4.53473889       7.52843448      -0.00161525      -0.00040446       0.00096491
V        9.08782019       3.15587723       9.19272320      -0.00095819      -0.00001596      -0.00122427
V       10.49203455       4.48771174      10.49283626       0.00048638       0.00187575       0.00032544
V        9.00948643       6.05665601       0.00329577       0.00104286       0.00124792       0.00121789
V       10.59506355       7.64973826       1.49452828       0.00297202       0.00052923       0.00261793
V        9.05489817       6.06151549       3.03806367       0.00207681      -0.00167011       0.00164121
V       10.60586783       7.53751252       4.57917709      -0.00037515      -0.00137896       0.00113744
V        9.05191847       6.09853583       6.05752145      -0.00022209      -0.00180864       0.00006063
V       10.58800061       7.53829419       7.55758482      -0.00086407      -0.00066196       0.00066628
V        9.04717952       6.08287380       9.06464397      -0.00110083      -0.00023770       0.00115029
V       10.53477713       7.64334099      10.54114099      -0.00112336       0.00142212       0.00261037
V        9.04561581       9.06019331       0.03897768      -0.00120898       0.00104994       0.00246704
V       10.63950709      10.64848505       1.52420185       0.00093559       0.00016198       0.00093055
V       10.77278375      10.80219504       4.39217726      -0.00119606      -0.00141619      -0.00005533
V        9.06072494       9.03877596       6.03438198      -0.00071723      -0.00196162       0.00260043
V        9.05712473       9.02803478       9.09245909      -0.00213066       0.00066794       0.00229817
V       10.62027814      10.51666267      10.68328162       0.00090565       0.00148955      -0.00004705
W        1.44877030      10.65567377       1.59967447      -0.00191577       0.00139628       0.00100116
W        4.57258268       7.54083004       4.51851574       0.00051173      -0.00143679       0.00176578
W       10.57861481       1.49058646      10.62666677      -0.00062795       0.00127087       0.00018749
W       10.56356907      10.57187147       7.56703011      -0.00112797       0.00077879      -0.00119935
Zr       0.02441492       5.97246505      -0.04270375       0.00322189       0.00098256       0.00199619
Zr       7.55651901       1.55868609       7.55021660      -0.00158881       0.00114591      -0.00125194
