128
Lattice="12.044405702 -0.004505072 0.000251258 -0.004506835 12.056999608 0.003663643 0.000253414 0.003660859 12.047399059" Properties=species:S:1:pos:R:3:forces:R:3 stress="-4.67489033528656e-05 3.4640375648652083e-06 -1.2919923890578342e-06 3.4640375648652083e-06 -5.863897823767321e-05 -1.6290338818555303e-06 -1.2919923890578342e-06 -1.6290338818555303e-06 -4.86151145815047e-05" free_energy=-1150.46103463 energy=-1150.42916965 pbc="T T T"
Cr       3.00782000       9.02821000       0.02323000      -0.00006500       0.00119300      -0.00193300
Cr       9.02030000       3.01420000       3.04875000      -0.00008000       0.00003900       0.00182200
Ti       3.01704000       6.02127000       9.03171000       0.00046800      -0.00033100      -0.00048900
Ti       9.02365000      12.05060000       9.02026000      -0.00005400      -0.00079700       0.00113500
V        0.04784000      12.05446000       0.02602000      -0.00056100       0.00076700      -0.00029400
V        1.51590000       1.49173000       1.53194000      -0.00034500       0.00133300      -0.00044900
V       12.03519000      12.05316000       3.02120000      -0.00080000       0.00076200      -0.00056400
V        1.50287000       1.49312000       4.49925000      -0.00064000       0.00075200      -0.00061600
V       12.03610000       0.00146000       6.00146000      -0.00053000      -0.00017300      -0.00070700
V        1.42802000       1.57660000       7.43149000      -0.00039700       0.00025300      -0.00098700
V       12.01059000      -0.00130000       9.02741000      -0.00003400      -0.00022200      -0.00030100
V        1.46488000       1.57634000      10.62283000       0.00024400       0.00045800      -0.00042800
V        0.01499000       3.02278000       0.01581000      -0.00000500       0.00076300       0.00025800
V        1.53139000       4.53919000       1.50367000       0.00020200       0.00114600      -0.00065900
V        0.03510000       3.00526000       3.03404000      -0.00032600       0.00066100       0.00039900
V        1.50615000       4.52452000       4.50619000       0.00002600       0.00032700      -0.00048000
V       12.03455000       3.00841000       6.00784000      -0.00037900      -0.00016500       0.00024300
V        1.46355000       4.49934000       7.50324000       0.00009000      -0.00006000       0.00008700
V       12.04115000       3.03173000       9.02865000      -0.00030000      -0.00009100       0.00045400
V        1.47575000       4.51895000      10.58102000       0.00021700       0.00068500      -0.00040600
V        0.02283000       6.04946000      12.03976000      -0.00021300       0.00062700      -0.00031700
V        1.54575000       7.56931000       1.47927000      -0.00013400       0.00082600      -0.00166500
V        0.00865000       6.04512000       3.01887000       0.00034200       0.00057000      -0.00035000
V        1.50964000       7.53932000       4.49472000       0.00010000       0.00030000      -0.00159400
V        0.01419000       6.01363000       6.00632000       0.00016800      -0.00059000      -0.00016200
V        1.49943000       7.55750000       7.50190000       0.00017900      -0.00067000      -0.00088500
V        0.00584000       6.01979000       9.04988000      -0.00025800      -0.00039000       0.00003000
V        1.52020000       7.56985000      10.60475000      -0.00016800       0.00020500      -0.00151800
V       -0.00031000       9.02823000       0.02725000      -0.00044500       0.00062700      -0.00101300
V        1.54135000      10.53257000       1.51222000      -0.00067300       0.00083200      -0.00142100
V        0.00541000       9.04472000       3.01590000      -0.00033500       0.00047700      -0.00114300
V        1.50086000      10.55960000       4.49207000      -0.00071800      -0.00033100      -0.00152500
V       -0.00166000       9.05540000       5.99065000       0.00005300      -0.00024900      -0.00116500
V        1.43416000      10.48931000       7.43863000      -0.00024100      -0.00066500      -0.00178000
V        0.02197000       9.03823000       9.03659000      -0.00012300      -0.00017300      -0.00051900
V        1.51386000      10.45932000      10.64927000      -0.00033600       0.00062500      -0.00150600
V        3.01342000       0.01726000       0.06064000      -0.00041500       0.00080400      -0.00089700
V        4.50837000       1.49415000       1.53338000      -0.00026200       0.00106800      -0.00018800
V        3.00811000      12.05297000       3.02172000      -0.00034900       0.00065100      -0.00114800
V        4.51656000       1.49244000       4.49568000       0.00004100       0.00050300       0.00003000
V        3.00685000      12.05527000       5.95489000      -0.00030500      -0.00017700      -0.00153300
V        4.59511000       1.57516000       7.43197000       0.00008600       0.00008400      -0.00034000
V        4.55865000       1.57981000      10.62894000      -0.00066600       0.00010200      -0.00002000
V        3.01382000       3.02839000       0.02462000       0.00001500       0.00073400      -0.00013300
V        4.51004000       4.53381000       1.50707000       0.00024200       0.00079200      -0.00029900
V        3.01409000       3.01702000       3.00210000      -0.00006800       0.00064000      -0.00025700
V        4.51940000       4.52571000       4.50525000       0.00036600      -0.00002400       0.00010500
V        3.01186000       3.02812000       6.00245000       0.00007300      -0.00000200      -0.00041500
V        4.56603000       4.50269000       7.50289000       0.00057400      -0.00039000       0.00063100
V        3.01320000       3.07524000       9.04470000       0.00010600       0.00009700      -0.00017800
V        4.55201000       4.52005000      10.58609000       0.00047400       0.00048400       0.00006700
V        3.01525000       6.01255000       0.00460000       0.00037300       0.00091000      -0.00151000
V        4.48061000       7.56048000       1.48184000       0.00052100       0.00046600      -0.00114600
V        3.01465000       6.03585000       3.01305000       0.00030400       0.00083800      -0.00148300
V        4.51710000       7.53422000       4.49339000       0.00023600      -0.00008200      -0.00113600
V        3.01378000       6.02823000       6.00532000       0.00039600      -0.00042500      -0.00049600
V        4.55645000       7.55285000       7.50788000       0.00036100      -0.00089500      -0.00055500
V        4.50653000       7.56409000      10.60955000       0.00057000      -0.00006200      -0.00106100
V        4.47291000      10.53260000       1.51353000      -0.00009400       0.00043000      -0.00109000
V        3.01073000       9.04136000       3.02518000      -0.00004100       0.00073800      -0.00210700
V        4.51022000      10.55634000       4.49875000      -0.00002700      -0.00054300      -0.00111100
V        3.01216000       9.02963000       6.00244000       0.00001800      -0.00038900      -0.00203400
V        4.58127000      10.48343000       7.44035000      -0.00024500      -0.00097500      -0.00121000
V        3.01023000       8.98988000       9.02570000      -0.00008000       0.00005000      -0.00161200
V        4.49875000      10.44921000      10.64848000      -0.00045700       0.00030300      -0.00104200
V        5.96372000      -0.00043000       0.02219000      -0.00027500       0.00022800       0.00036900
V        7.50498000       1.60355000       1.62580000      -0.00021700       0.00057600       0.00108400
V        6.02621000       0.00255000       3.01996000      -0.00008200       0.00026900       0.00012000
V        7.55527000       1.52282000       4.52055000       0.00002900      -0.00007200       0.00133400
V        6.02379000      12.05442000       6.00829000      -0.00010100      -0.00052100       0.00001600
V        7.51777000       1.53449000       7.48604000       0.00032500      -0.00100900       0.00158500
V        6.04936000      12.05393000       9.03014000      -0.00045200      -0.00056900       0.00033300
V        7.40491000       1.64996000      10.49182000      -0.00026300      -0.00050900       0.00149700
V        6.01489000       3.03574000       0.03239000       0.00002200       0.00034500       0.00111400
V        7.52159000       4.52069000       1.53998000       0.00031800       0.00019400       0.00160500
V        5.99025000       3.01480000       3.02490000       0.00016700       0.00022500       0.00099600
V        7.54872000       4.48727000       4.50540000       0.00021700      -0.00057800       0.00150300
V        6.02907000       3.01329000       6.00583000       0.00048100      -0.00054600       0.00098300
V        7.54165000       4.53032000       7.52765000       0.00056200      -0.00116400       0.00120600
V        6.02328000       3.03950000       9.02963000       0.00055400      -0.00039100       0.00100200
V        7.53299000       4.55745000      10.54432000       0.00044100      -0.00067300       0.00175600
V        6.01039000       6.02470000       0.01158000       0.00081000       0.00034700       0.00045900
V        7.51144000       7.51137000       1.51397000       0.00022900       0.00015000       0.00079000
V        6.01958000       6.02536000       3.00688000       0.00020600       0.00012800       0.00032900
V        7.52394000       7.52148000       4.52276000       0.00005200      -0.00045800       0.00062400
V        6.01551000       6.02446000       6.01743000       0.00061000      -0.00100200       0.00060600
V        7.50942000       7.51332000       7.53096000       0.00030800      -0.00085200       0.00035500
V        6.02551000       6.03037000       9.04502000       0.00107500      -0.00063300       0.00052200
V        7.52053000       7.50264000      10.54170000       0.00038100      -0.00023200       0.00078400
V        6.01579000       9.01724000       0.02739000       0.00029300       0.00023100      -0.00024600
V        7.43534000      10.48085000       1.59380000       0.00009000      -0.00001900       0.00027700
V        6.00911000       9.03955000       3.02006000       0.00012500       0.00011700      -0.00039900
V        7.53021000      10.56577000       4.52820000       0.00002200      -0.00067200       0.00050000
V        6.02657000       9.03903000       6.00715000      -0.00004900      -0.00078400      -0.00052300
V        7.50603000      10.52249000       7.48932000       0.00018700      -0.00081400       0.00084000
V        6.00281000       9.01796000       9.02929000       0.00028600      -0.00081700      -0.00014500
V        7.38124000      10.40387000      10.50124000       0.00007700      -0.00007400       0.00050100
V       10.56582000       1.55731000       1.61965000      -0.00049900       0.00090600       0.00076200
V        9.02814000      12.04223000       3.06086000      -0.00042400       0.00045900       0.00078900
V       10.50926000       1.52088000       4.51792000      -0.00052900       0.00022500       0.00071000
V        9.03263000       0.00276000       6.02500000      -0.00028300      -0.00052100       0.00111300
V       10.54687000       1.52790000       7.48755000      -0.00061800      -0.00081700       0.00103400
V       10.65514000       1.64026000      10.49504000      -0.00013700      -0.00024200       0.00093600
V        9.01908000       3.05797000      12.03640000       0.00000900       0.00040200       0.00172800
V       10.50400000       4.48354000       4.53001000       0.00030800      -0.00015000       0.00092500
V        9.02907000       3.01423000       6.04823000       0.00004000      -0.00062800       0.00146100
V       10.51545000       4.49886000       7.52887000       0.00010400      -0.00081500       0.00086400
V        9.03007000       3.03092000       9.02821000       0.00018000      -0.00095500       0.00182000
V       10.52808000       4.55595000      10.52244000       0.00015900      -0.00031900       0.00121000
V        9.01739000       6.04601000       0.01292000       0.00039100      -0.00008000       0.00107000
V       10.54353000       7.54029000       1.51094000       0.00019700       0.00038800       0.00033100
V        9.01281000       6.05089000       3.03648000       0.00031900      -0.00014500       0.00123400
V       10.52519000       7.52396000       4.49496000       0.00041200      -0.00012100       0.00001800
V        9.01375000       6.00414000       5.99888000       0.00024100      -0.00116100       0.00113100
V        9.01659000       6.01598000       9.03993000       0.00035100      -0.00098500       0.00120800
V       10.53741000       7.50785000      10.56168000       0.00006400      -0.00003900       0.00021500
V        9.02829000       8.98063000       0.01376000      -0.00000600      -0.00000200       0.00032200
V       10.61874000      10.48714000       1.59003000      -0.00064100       0.00027400      -0.00011200
V        9.02740000       9.03153000       3.02173000      -0.00005800      -0.00013000       0.00052800
V       10.52837000      10.56836000       4.52695000      -0.00046500      -0.00046200      -0.00007200
V        9.01486000       9.04631000       6.00670000      -0.00012100      -0.00075400       0.00033700
V       10.55306000      10.55590000       7.48583000      -0.00051200      -0.00049700       0.00037900
V        9.01866000       9.03560000       9.04402000      -0.00002000      -0.00056400       0.00052600
V       10.67142000      10.40857000      10.50000000      -0.00036400       0.00029600       0.00004500
W       10.52493000       4.52376000       1.53307000       0.00031400       0.00074500       0.00126700
W       10.52508000       7.52019000       7.52484000       0.00036400      -0.00036900       0.00002400
Zr       3.01461000       0.01253000       9.00572000      -0.00055100       0.00016100      -0.00191000
Zr       9.02004000      12.04276000      12.04331000      -0.00033200       0.00042900       0.00094500
