128
Lattice="12.04 0.0 0.0 0.0 12.04 0.0 0.0 0.0 12.04" Properties=species:S:1:pos:R:3:forces:R:3 stress="-0.0015112129140862321 3.7455296264425434e-05 -3.3828979462287262e-06 3.7455296264425434e-05 -0.0015145770875050835 -3.5308217125121594e-05 -3.3828979462287262e-06 -3.5308217125121594e-05 -0.0015334389280835024" free_energy=-1148.85255598 energy=-1148.81486889 pbc="T T T"
Cr       3.01000000       9.03000000       0.00000000      -0.00284300       0.02129700      -0.00301800
Cr       9.03000000       3.01000000       3.01000000      -0.11408600      -0.12389900       0.09471900
Ti       3.01000000       6.02000000       9.03000000       0.00890900       0.00393100       0.00556800
Ti       9.03000000       0.00000000       9.03000000      -0.00600600       0.01034800      -0.41805200
V        0.00000000       0.00000000       0.00000000       0.40987100      -0.00394300      -0.01663200
V        1.50500000       1.50500000       1.50500000       0.01116100       0.00059800       0.03069200
V        0.00000000       0.00000000       3.01000000      -0.02416700       0.00419200      -0.02359700
V        1.50500000       1.50500000       4.51500000      -0.02967900       0.01257300      -0.01076700
V        0.00000000       0.00000000       6.02000000       0.01690100      -0.00096100       0.01778900
V        1.50500000       1.50500000       7.52500000      -0.57394400       0.55103600      -0.56125500
V        0.00000000       0.00000000       9.03000000      -0.38963800      -0.00296800       0.02206800
V        1.50500000       1.50500000      10.53500000      -0.51749300       0.53936000       0.54470000
V        0.00000000       3.01000000       0.00000000       0.10339700      -0.14186200      -0.11202900
V        1.50500000       4.51500000       1.50500000       0.19344800       0.00196400      -0.00217700
V        0.00000000       3.01000000       3.01000000       0.23077300      -0.14431300       0.15517000
V        1.50500000       4.51500000       4.51500000      -0.02627700      -0.03819900      -0.00933800
V        0.00000000       3.01000000       6.02000000      -0.02342200       0.00236500      -0.02377600
V        1.50500000       4.51500000       7.52500000      -0.29915900      -0.26343800      -0.27016400
V        0.00000000       3.01000000       9.03000000       0.03251700      -0.00805900      -0.01905200
V        1.50500000       4.51500000      10.53500000      -0.26714000      -0.24413600       0.28030500
V        0.00000000       6.02000000       0.00000000       0.16730800       0.16465900      -0.17395100
V        1.50500000       7.52500000       1.50500000       0.17343900       0.21619900      -0.18729600
V        0.00000000       6.02000000       3.01000000       0.13903600       0.13292900       0.11827800
V        1.50500000       7.52500000       4.51500000      -0.00319600       0.03591200      -0.01820900
V        0.00000000       6.02000000       6.02000000       0.14209900      -0.14360100      -0.13060200
V        1.50500000       7.52500000       7.52500000      -0.04044000       0.27187100      -0.25279400
V        0.00000000       6.02000000       9.03000000       0.15040400      -0.14564900       0.15363700
V        1.50500000       7.52500000      10.53500000      -0.09567200       0.44736300       0.45785600
V        0.00000000       9.03000000       0.00000000      -0.10670300       0.01678300       0.02440100
V        1.50500000      10.53500000       1.50500000       0.19048700      -0.20345300      -0.15925700
V        0.00000000       9.03000000       3.01000000       0.02766500      -0.00878300       0.01053200
V        1.50500000      10.53500000       4.51500000      -0.00157600      -0.01062900      -0.04095800
V        0.00000000       9.03000000       6.02000000       0.12380300       0.13656200      -0.16271000
V        1.50500000      10.53500000       7.52500000      -0.55058100      -0.56047700      -0.54282700
V        0.00000000       9.03000000       9.03000000       0.17738200       0.14824700       0.12438000
V        1.50500000      10.53500000      10.53500000      -0.34841300      -0.74590600       0.74100800
V        3.01000000       0.00000000       0.00000000       0.00569700       0.06249600       0.37274700
V        4.51500000       1.50500000       1.50500000      -0.00908000       0.01517200       0.02930700
V        3.01000000       0.00000000       3.01000000       0.00345100      -0.00271000      -0.01021300
V        4.51500000       1.50500000       4.51500000       0.02990200       0.02494800      -0.01658100
V        3.01000000       0.00000000       6.02000000       0.00611900      -0.00824200      -0.38796200
V        4.51500000       1.50500000       7.52500000       0.56213700       0.55648600      -0.56064300
V        4.51500000       1.50500000      10.53500000       0.51960000       0.55170700       0.54933000
V        3.01000000       3.01000000       0.00000000       0.00471000      -0.03256300      -0.01390300
V        4.51500000       4.51500000       1.50500000       0.02441000       0.00272500       0.00191000
V        3.01000000       3.01000000       3.01000000       0.01241900      -0.01075600      -0.02254400
V        4.51500000       4.51500000       4.51500000       0.04692200      -0.02988000      -0.01261500
V        3.01000000       3.01000000       6.02000000       0.00057100      -0.03436300       0.00938900
V        4.51500000       4.51500000       7.52500000       0.30604300      -0.25135300      -0.26947900
V        3.01000000       3.01000000       9.03000000       0.00054000       0.36653400       0.02330200
V        4.51500000       4.51500000      10.53500000       0.28778500      -0.23005700       0.28273400
V        3.01000000       6.02000000       0.00000000       0.00388700      -0.08127500      -0.00818500
V        4.51500000       7.52500000       1.50500000      -0.16584400       0.19820600      -0.18774200
V        3.01000000       6.02000000       3.01000000       0.00067600      -0.00568800      -0.01559000
V        4.51500000       7.52500000       4.51500000       0.01661300       0.02526900      -0.01911900
V        3.01000000       6.02000000       6.02000000      -0.00521300       0.00925700       0.01157800
V        4.51500000       7.52500000       7.52500000       0.28401100       0.26156700      -0.24599800
V        4.51500000       7.52500000      10.53500000       0.11377400       0.43876400       0.45089000
V        4.51500000      10.53500000       1.50500000      -0.19964500      -0.20884500      -0.16003000
V        3.01000000       9.03000000       3.01000000       0.00109300       0.01360500       0.06388200
V        4.51500000      10.53500000       4.51500000       0.00217500      -0.02025000      -0.03241900
V        3.01000000       9.03000000       6.02000000       0.00462700       0.03012900       0.02160400
V        4.51500000      10.53500000       7.52500000       0.54753600      -0.57458600      -0.54524000
V        3.01000000       9.03000000       9.03000000       0.00161900      -0.36274800      -0.04662400
V        4.51500000      10.53500000      10.53500000       0.35246900      -0.76352100       0.73409000
V        6.02000000       0.00000000       0.00000000      -0.40690000       0.00264700      -0.01839000
V        7.52500000       1.50500000       1.50500000      -0.38953400       0.72709100       0.71687900
V        6.02000000       0.00000000       3.01000000       0.02392600       0.00890200      -0.01888100
V        7.52500000       1.50500000       4.51500000       0.15622100       0.19823700      -0.13994500
V        6.02000000       0.00000000       6.02000000      -0.02053200      -0.00638900       0.01701600
V        7.52500000       1.50500000       7.52500000      -0.22436200       0.30927700      -0.31312200
V        6.02000000       0.00000000       9.03000000       0.39041800      -0.00496800       0.03009900
V        7.52500000       1.50500000      10.53500000      -0.81306600       0.86665000      -0.26288300
V        6.02000000       3.01000000       0.00000000       0.03204700      -0.01876100       0.02835900
V        7.52500000       4.51500000       1.50500000      -0.05745600      -0.15772400       0.18104600
V        6.02000000       3.01000000       3.01000000      -0.08902300       0.00001400       0.00997100
V        7.52500000       4.51500000       4.51500000       0.15661200      -0.20302000      -0.15483400
V        6.02000000       3.01000000       6.02000000       0.02017000       0.00032300      -0.03198000
V        7.52500000       4.51500000       7.52500000      -0.00059200      -0.02462000      -0.03377500
V        6.02000000       3.01000000       9.03000000      -0.03396400      -0.01967500      -0.00581900
V        7.52500000       4.51500000      10.53500000      -0.02465900       0.00575600       0.00908800
V        6.02000000       6.02000000       0.00000000      -0.00696800      -0.00331300      -0.00683600
V        7.52500000       7.52500000       1.50500000      -0.03007800      -0.01831800       0.00094800
V        6.02000000       6.02000000       3.01000000      -0.00298900      -0.01223500      -0.01646000
V        7.52500000       7.52500000       4.51500000      -0.01240900      -0.00492400       0.00086700
V        6.02000000       6.02000000       6.02000000       0.00023500       0.00786000       0.01133400
V        7.52500000       7.52500000       7.52500000      -0.24380100      -0.00912800      -0.01435800
V        6.02000000       6.02000000       9.03000000      -0.01487200       0.00765300       0.01204200
V        7.52500000       7.52500000      10.53500000      -0.05287800      -0.01100300       0.01011100
V        6.02000000       9.03000000       0.00000000       0.10076500       0.02481400       0.01140000
V        7.52500000      10.53500000       1.50500000      -0.55650100      -0.54799100       0.52072300
V        6.02000000       9.03000000       3.01000000      -0.02808800      -0.00111700       0.01555000
V        7.52500000      10.53500000       4.51500000      -0.01553300       0.00167900       0.00121700
V        6.02000000       9.03000000       6.02000000       0.01372400      -0.00130900      -0.01247800
V        7.52500000      10.53500000       7.52500000      -0.25234300      -0.27311000      -0.29649300
V        6.02000000       9.03000000       9.03000000      -0.03862400       0.01666300      -0.01580800
V        7.52500000      10.53500000      10.53500000      -0.84217200      -0.86261500      -0.23091500
V       10.53500000       1.50500000       1.50500000       0.38683400       0.50035400       0.70965900
V        9.03000000       0.00000000       3.01000000      -0.01086000      -0.04559900       0.36056400
V       10.53500000       1.50500000       4.51500000      -0.16022300       0.19567300      -0.13432300
V        9.03000000       0.00000000       6.02000000      -0.00436800      -0.00678900      -0.00930400
V       10.53500000       1.50500000       7.52500000       0.23682700       0.30097400      -0.31244500
V       10.53500000       1.50500000      10.53500000       0.80683900       0.85716400      -0.26537400
V        9.03000000       3.01000000       0.00000000      -0.15691500       0.22070300      -0.19857900
V       10.53500000       4.51500000       4.51500000      -0.17835300      -0.20612200       0.06347700
V        9.03000000       3.01000000       6.02000000      -0.00031400      -0.01221700       0.07787200
V       10.53500000       4.51500000       7.52500000      -0.00341600      -0.25780000      -0.02648000
V        9.03000000       3.01000000       9.03000000      -0.00022800      -0.05407200       0.02317100
V       10.53500000       4.51500000      10.53500000       0.01017200       0.01131400      -0.20226700
V        9.03000000       6.02000000       0.00000000      -0.12772600       0.13334000      -0.12327700
V       10.53500000       7.52500000       1.50500000       0.02776100       0.20020300      -0.00644300
V        9.03000000       6.02000000       3.01000000      -0.14681000       0.20664200       0.13614200
V       10.53500000       7.52500000       4.51500000      -0.00061700       0.00185900      -0.22950600
V        9.03000000       6.02000000       6.02000000      -0.14216300      -0.14087800      -0.14994400
V        9.03000000       6.02000000       9.03000000      -0.13026700      -0.13034300       0.14877200
V       10.53500000       7.52500000      10.53500000       0.03272700      -0.00310100       0.23560700
V        9.03000000       9.03000000       0.00000000       0.00321400      -0.37144200      -0.00646400
V       10.53500000      10.53500000       1.50500000       0.56530700      -0.55731900       0.51953300
V        9.03000000       9.03000000       3.01000000       0.00274200       0.03689800      -0.02453500
V       10.53500000      10.53500000       4.51500000       0.01792300       0.00797300       0.00508400
V        9.03000000       9.03000000       6.02000000      -0.14981200       0.15697400      -0.13235500
V       10.53500000      10.53500000       7.52500000       0.25759100      -0.02975300      -0.29357200
V        9.03000000       9.03000000       9.03000000      -0.14581300       0.18691100       0.16840500
V       10.53500000      10.53500000      10.53500000       0.83280200      -0.85821300      -0.22936400
W       10.53500000       4.51500000       1.50500000      -0.20030300      -0.18127700       0.22224900
W       10.53500000       7.52500000       7.52500000       0.00080800      -0.01690900      -0.01518100
Zr       3.01000000       0.00000000       9.03000000       0.00318300       0.02311000       0.00611000
Zr       9.03000000       0.00000000       0.00000000      -0.00049200      -0.03354500       0.04058400
