128
Lattice="11.704399053409029 0.0008083397555309771 0.0004642799452775858 0.0008084012019151772 11.705913887344366 0.0012991646523473062 0.0004642776101685465 0.0012990500267091095 11.706916941412393" Properties=species:S:1:pos:R:3:energies:R:1:forces:R:3 energy=-1147.4784256095375 free_energy=-1147.4784256095375 stress="0.0004086530147895965 -3.748661482452287e-05 2.5746739063630106e-05 -3.748661482452287e-05 0.00019662249532683055 -6.0319338329373906e-05 2.5746739063630106e-05 -6.0319338329373906e-05 0.0001984867992521533" pbc="T T T"
Cr       2.92937708       8.77646542       0.02448151      -7.25420799      -0.00001269      -0.00093840      -0.00024793
Cr       8.77798447       2.94225190       2.94402420      -7.55526727       0.00175790       0.00213251      -0.00307942
Ti       2.93001557       5.84922852       8.77100279      -7.97298088       0.00113989      -0.00134099       0.00027424
Ti       8.77673728       0.00268685       8.74391707      -7.89375370      -0.00147930      -0.00016059       0.00019547
V        0.01741894       0.00361077       0.00696291      -9.00343150       0.00037526       0.00002271      -0.00073132
V        1.46355351       1.46833965       1.46798811      -8.99088151      -0.00098389       0.00023069      -0.00044565
V        0.01046332      -0.00074170       2.93466971      -8.98278763      -0.00082104      -0.00102125       0.00071055
V        1.46143310       1.46619122       4.39105022      -8.92852797      -0.00072159       0.00114694       0.00065154
V       -0.00408284      -0.00138975       5.84583507      -8.95193038       0.00144847       0.00031971      -0.00155700
V        1.46313214       1.46603371       7.31226819      -8.97015706       0.00250193       0.00044491       0.00002171
V       -0.01425547      -0.00101780       8.77167647      -8.93483358       0.00368891       0.00159676      -0.00162189
V        1.46155484       1.47030157      10.23983089      -8.96534603       0.00222205      -0.00025325       0.00069909
V        0.00596615       2.93968039       0.00153598      -9.40395214      -0.00020565       0.00006780       0.00038674
V        1.47903155       4.39095969       1.46539983      -9.20878118       0.00110380      -0.00173255      -0.00062305
V        0.00423906       2.93152118       2.92713008      -9.47326821       0.00103755      -0.00136521       0.00127762
V        1.46715363       4.39175420       4.39253563      -8.99346168      -0.00084286      -0.00154032       0.00128693
V        0.00028521       2.92981534       5.85230897      -8.97966321       0.00108249       0.00041208      -0.00253835
V        1.46558098       4.39387808       7.31784299      -8.99295269       0.00176971      -0.00137059      -0.00003738
V       -0.00119885       2.93527713       8.77885186      -8.96448604       0.00192624       0.00029355      -0.00002131
V        1.46452839       4.39366967      10.23715195      -8.99169310       0.00232437      -0.00115555       0.00094340
V       -0.00783073       5.84873568       0.00274174      -9.43690231       0.00196708       0.00074069      -0.00193012
V        1.45975711       7.31273481       1.47509393      -9.09901212       0.00023405       0.00169844      -0.00025253
V        0.00367650       5.85702031       2.92656828      -9.40128706       0.00059983       0.00046783       0.00080066
V        1.46115201       7.31438591       4.39102613      -8.99283331      -0.00176591       0.00106689       0.00133788
V        0.00251477       5.85130013       5.84960468      -9.35610215       0.00007845       0.00074473       0.00075795
V        1.46111064       7.30785795       7.31626667      -9.19915712       0.00017007       0.00061664      -0.00074102
V        0.00392647       5.85205230       8.78557463      -9.31766734       0.00126649      -0.00114151       0.00117458
V        1.46130739       7.30749076      10.24280975      -9.10021879       0.00127323       0.00077943       0.00218529
V       -0.00143648       8.76856903       0.00186433      -9.05131350       0.00008775      -0.00167751       0.00089238
V        1.46298763      10.24132674       1.47232163      -9.02777988       0.00030580      -0.00131775      -0.00028764
V        0.00118581       8.77771128       2.93378800      -8.97970004       0.00009181       0.00027850       0.00064921
V        1.45974110      10.24313133       4.39406715      -8.92583176      -0.00141728      -0.00046007       0.00128168
V        0.00162284       8.78105829       5.85060994      -9.34297003      -0.00195164      -0.00006933      -0.00238751
V        1.46496270      10.24744766       7.31449799      -9.02964672       0.00043337       0.00081979      -0.00145628
V       -0.00209129       8.77448591       8.78027439      -9.43340638       0.00053452      -0.00090092      -0.00061848
V        1.45894690      10.24718245      10.24308667      -9.05926942       0.00222853      -0.00079044       0.00133061
V        2.92649337       0.00832922       0.01999923      -9.06361820      -0.00083255      -0.00046995      -0.00373502
V        4.38951974       1.46809761       1.46722926      -8.92553402      -0.00008294       0.00014874      -0.00342739
V        2.92622172       0.00251878       2.93067736      -8.99449349      -0.00360656      -0.00060352       0.00118949
V        4.38716818       1.46409856       4.39297380      -8.92630606      -0.00180930       0.00038846       0.00339696
V        2.92565693       0.00233293       5.83087382      -8.93777236      -0.00143334       0.00063771       0.00017714
V        4.38657514       1.46500573       7.31256394      -8.96865677      -0.00080316       0.00133155       0.00171667
V        4.39075441       1.46982078      10.24005508      -8.96442217       0.00053357       0.00028417      -0.00101870
V        2.92580588       2.92840516       0.00573724      -8.95670530      -0.00015044       0.00155822      -0.00327785
V        4.38840119       4.39089145       1.46528300      -8.93446040      -0.00068289      -0.00053927      -0.00250395
V        2.92592659       2.92618804       2.92855298      -8.93296390      -0.00380535       0.00084187       0.00061136
V        4.38714221       4.39212762       4.39204306      -8.92912059      -0.00188297      -0.00086361       0.00346157
V        2.92635111       2.92967482       5.84608657      -8.95016370      -0.00154673      -0.00036789       0.00161687
V        4.38661760       4.39587214       7.31836925      -8.92715204      -0.00143424      -0.00008135       0.00172508
V        2.92680987       2.94596310       8.77851265      -8.92140285       0.00065165      -0.00130078      -0.00164053
V        4.38914232       4.39580954      10.23719826      -8.92585902      -0.00076668      -0.00120988       0.00130437
V        2.92617845       5.84559016       0.00232579      -9.02074933       0.00008444      -0.00103564      -0.00000057
V        4.39434614       7.31240878       1.47347233      -9.02916034       0.00016530      -0.00017273      -0.00327556
V        2.92706309       5.85197046       2.93266012      -8.97943437      -0.00242687      -0.00113538      -0.00117062
V        4.39254513       7.31476641       4.39294898      -8.92835620      -0.00099527       0.00029911       0.00206452
V        2.92633698       5.85305883       5.85404146      -8.90707815      -0.00114070      -0.00183468       0.00028692
V        4.39119045       7.30834143       7.31699517      -8.92466828      -0.00056345      -0.00043270       0.00215395
V        4.39272512       7.30953873      10.24064186      -9.03512112      -0.00061521      -0.00000184       0.00094835
V        4.39077303      10.24158182       1.47257736      -9.02627314      -0.00140819      -0.00231799      -0.00292256
V        2.92779761       8.78051839       2.94045856      -9.04513727      -0.00402627      -0.00003218      -0.00227868
V        4.39265969      10.24265014       4.39460634      -8.92700471      -0.00124810       0.00021970       0.00149039
V        2.92511269       8.77598481       5.84857865      -8.95579299      -0.00207900       0.00103830       0.00180520
V        4.39034945      10.24455022       7.31335332      -8.96786378       0.00068307       0.00078703       0.00070751
V        2.92569379       8.76388045       8.77696927      -9.04270880       0.00135419       0.00239503       0.00069301
V        4.39586379      10.24631246      10.24162976      -9.06016762      -0.00013543      -0.00139614      -0.00028294
V        5.83534183       0.00286358       0.00819065      -9.00656992       0.00336217       0.00012193      -0.00269432
V        7.30835771       1.45766195       1.46151868      -9.12505488       0.00056683       0.00129818      -0.00153231
V        5.84115908      -0.00311130       2.93410984      -8.98524416       0.00462841      -0.00130917      -0.00099216
V        7.30966587       1.46401424       4.39336640      -9.02837737       0.00245059      -0.00008184       0.00189315
V        5.85399012       0.00079273       5.84371028      -8.95037117       0.00035463       0.00037741       0.00309566
V        7.31144452       1.46785344       7.31377965      -8.91866782       0.00030874       0.00081356       0.00032301
V        5.86562010       0.00102016       8.77248502      -8.93461003      -0.00050414       0.00124788      -0.00070327
V        7.31480809       1.46656080      10.24171612      -8.97113468      -0.00091512       0.00150002       0.00109114
V        5.84666230       2.93643645      -0.00019700      -8.98304823       0.00163151       0.00051761      -0.00198468
V        7.30076479       4.39573944       1.46190525      -9.29597989       0.00152248      -0.00037630      -0.00132528
V        5.84063018       2.92766545       2.93032581      -9.03858200       0.00283419       0.00150016      -0.00203550
V        7.30921485       4.39726512       4.39995564      -9.08352157       0.00170412      -0.00061435       0.00164716
V        5.85060754       2.92965325       5.85408292      -8.98147612       0.00137403       0.00053632       0.00072499
V        7.31477256       4.39571248       7.31795666      -8.99357581       0.00091163      -0.00034978       0.00108132
V        5.85336790       2.93453342       8.77783826      -8.96654470       0.00176781       0.00073129       0.00095749
V        7.31506480       4.39462208      10.23939011      -8.99082637      -0.00006898      -0.00077666       0.00073932
V        5.85923785       5.85196766       0.00073917      -8.99865007      -0.00001657       0.00027379      -0.00122245
V        7.31527422       7.31544068       1.46686503      -8.99257198       0.00094098      -0.00014769      -0.00283595
V        5.85175656       5.85621578       2.92781635      -8.97820453       0.00106992      -0.00074737      -0.00239684
V        7.31679287       7.31650472       4.39334469      -8.99457636       0.00272419       0.00158922       0.00260174
V        5.85564415       5.85406351       5.85263193      -8.94512148       0.00097115      -0.00028208       0.00297309
V        7.31772527       7.31600159       7.31519280      -9.20991063       0.00238312       0.00044832       0.00031062
V        5.85499703       5.85520568       8.78108267      -8.90545059       0.00051799      -0.00026164       0.00005538
V        7.31950210       7.31321309      10.24068614      -8.99037369       0.00044510       0.00066007       0.00165978
V        5.85552280       8.77026327       0.00300086      -9.05355715       0.00103194      -0.00121690      -0.00036776
V        7.31593907      10.24204064       1.46594299      -8.96977532       0.00011181      -0.00078831      -0.00195392
V        5.85260800       8.77870969       2.93321034      -8.98231550       0.00198764      -0.00065662      -0.00185526
V        7.31152014      10.23685681       4.39444171      -8.92602365       0.00303691      -0.00034505       0.00190424
V        5.85595409       8.77666396       5.85173991      -8.92842984       0.00241689       0.00022083       0.00060804
V        7.31250933      10.23617960       7.31137038      -8.98591877       0.00149555      -0.00039970      -0.00024629
V        5.85881928       8.77329659       8.77765200      -9.01550755       0.00127736      -0.00033356       0.00100524
V        7.31924160      10.24487626      10.24324762      -8.97298603      -0.00001610      -0.00002425       0.00065624
V       10.24740109       1.44898806       1.46025611      -9.32549184      -0.00092849       0.00145879       0.00012762
V        8.77650846      -0.00724346       2.95438196      -9.04898227       0.00134916      -0.00037925      -0.00289175
V       10.24591366       1.46300200       4.39465425      -9.08646315       0.00037327       0.00011440       0.00070481
V        8.77798868      -0.00251256       5.85520949      -8.97384182       0.00070936       0.00043222      -0.00175593
V       10.24596696       1.46808615       7.31436659      -8.91972487      -0.00079028       0.00090378      -0.00192717
V       10.24355771       1.46628268      10.24035417      -9.03631566      -0.00113339       0.00246436       0.00107658
V        8.78038600       2.94829021       0.00052736      -9.48094501       0.00075749       0.00066150      -0.00002957
V       10.24904138       4.39791731       4.40994803      -9.36316721      -0.00114988      -0.00200333       0.00074088
V        8.77812913       2.92940377       5.86313907      -9.06868508      -0.00030273       0.00081824       0.00129493
V       10.24418701       4.39538417       7.32021402      -9.21497859      -0.00212928      -0.00100215      -0.00173379
V        8.77894174       2.93403129       8.77204039      -8.92338476      -0.00196116       0.00114189       0.00072348
V       10.24584678       4.39546810      10.22644377      -9.27470505      -0.00236318      -0.00118854       0.00124778
V        8.78104108       5.85521263      -0.00341046      -9.41268816      -0.00172806      -0.00153008      -0.00012295
V       10.24404781       7.33058959       1.46612300      -9.20907969      -0.00142121       0.00258314      -0.00068775
V        8.78176491       5.85515636       2.92658753      -9.47895992       0.00015238      -0.00076509      -0.00091268
V       10.24318795       7.32024578       4.39470041      -9.27694994      -0.00160250       0.00306334       0.00336094
V        8.77615370       5.85310825       5.85377105      -9.39757720       0.00012265       0.00245128       0.00177418
V        8.77673519       5.85338947       8.78502273      -9.34187620      -0.00258232       0.00077907       0.00081989
V       10.24083646       7.31354025      10.23996671      -9.27718930      -0.00300286       0.00175593       0.00195224
V        8.77876475       8.75350790      -0.00040553      -8.95470228      -0.00134719       0.00048212       0.00072852
V       10.24204301      10.23984894       1.46653939      -8.97530739      -0.00077388       0.00017758       0.00026922
V        8.77882101       8.77152364       2.93762283      -8.93628958       0.00035161      -0.00008073      -0.00053891
V       10.24649794      10.23798256       4.39449062      -8.99303898      -0.00003762      -0.00168250       0.00159899
V        8.77565051       8.78124410       5.85089457      -9.36293234       0.00120495      -0.00118392       0.00174338
V       10.24358104      10.23556893       7.31163737      -9.19870806      -0.00087363      -0.00183193      -0.00265460
V        8.77607514       8.77663294       8.77360479      -9.33560326      -0.00149814      -0.00191669      -0.00268392
V       10.23780628      10.24303269      10.24376709      -9.03941064      -0.00115998      -0.00083743       0.00139976
W       10.25411739       4.40381788       1.45538562      -6.78846272      -0.00732748      -0.00520054       0.00154628
W       10.24178220       7.31871637       7.31787592      -6.66609914      -0.00433805       0.00445780      -0.00592859
Zr       2.92727892       0.01239683       8.77114351      -7.90432610      -0.00039204       0.00118411       0.00062961
Zr       8.77537337      -0.00749927       0.00607562      -7.83597289       0.00007144      -0.00123144       0.00085125
