 vasp.6.4.2 20Jul23 (build Sep 20 2024 16:56:05) complex                         
 executed on              LinuxNV date 2025.04.25  13:16:01
 running    4 mpi-ranks, with    8 threads/rank, on    1 nodes
 distrk:  each k-point on    4 cores,    1 groups
 distr:  one band on NCORE=   1 cores,    4 groups
 OpenACC runtime initialized ...    4 GPUs detected


--------------------------------------------------------------------------------------------------------


 INCAR:
   ENCUT = 520.000000
   POTIM = 0.200000
   SIGMA = 0.200000
   EDIFF = 1.00e-06
   EDIFFG = -1.00e-02
   ALGO = Normal
   GGA = PE
   PREC = Accurate
   IBRION = 2
   ISIF = 2
   ISMEAR = 1
   LORBIT = 11
   NELM = 100
   NSW = -1
   LCHARG = .TRUE.
   LWAVE = .FALSE.
   LREAL = .FALSE.

 POTCAR:    PAW_PBE Cr_pv 02Aug2007               
 POTCAR:    PAW_PBE Ti_pv 07Sep2000               
 POTCAR:    PAW_PBE V_pv 07Sep2000                
 POTCAR:    PAW_PBE W_sv 04Sep2015                
 POTCAR:    PAW_PBE Zr_sv 04Jan2005               
 POTCAR:    PAW_PBE Cr_pv 02Aug2007               
   SHA256 =  c9a7df34d3cdbacf1090e328ef39c0b420964e11c23f63548d1ac9dd218cdba0 Cr_pv/POTCAR          
   COPYR  = (c) Copyright 02Aug2007 Georg Kresse                                                    
   COPYR  = This file is part of the software VASP. Any use, copying, and all other rights are regul
   COPYR  = If you do not have a valid VASP license, you may not use, copy or distribute this file. 
   VRHFIN =Cr : p6d5s1                                                                              
   LEXCH  = PE                                                                                      
   EATOM  =  1647.9177 eV,  121.1185 Ry                                                             
                                                                                                    
   TITEL  = PAW_PBE Cr_pv 02Aug2007                                                                 
   LULTRA =        F    use ultrasoft PP ?                                                          
   IUNSCR =        1    unscreen: 0-lin 1-nonlin 2-no                                               
   RPACOR =    2.080    partial core radius                                                         
   POMASS =   51.996; ZVAL   =   12.000    mass and valenz                                          
   RCORE  =    2.300    outmost cutoff radius                                                       
   RWIGS  =    2.500; RWIGS  =    1.323    wigner-seitz radius (au A)                               
   ENMAX  =  265.681; ENMIN  =  199.261 eV                                                          
   ICORE  =        3    local potential                                                             
   LCOR   =        T    correct aug charges                                                         
   LPAW   =        T    paw PP                                                                      
   EAUG   =  519.424                                                                                
   DEXC   =    0.000                                                                                
   RMAX   =    2.356    core radius for proj-oper                                                   
   RAUG   =    1.300    factor for augmentation sphere                                              
   RDEP   =    2.447    radius for radial grids                                                     
   RDEPT  =    1.882    core radius for aug-charge                                                  
                                                                                                    
   Atomic configuration                                                                             
    8 entries                                                                                       
     n  l   j            E        occ.                                                              
     1  0  0.50     -5880.4963   2.0000                                                             
     2  0  0.50      -667.0865   2.0000                                                             
     2  1  1.50      -560.6250   6.0000                                                             
     3  0  0.50       -73.9860   2.0000                                                             
     3  1  1.50       -45.4378   6.0000                                                             
     3  2  2.50        -2.9137   5.0000                                                             
     4  0  0.50        -4.0071   1.0000                                                             
     4  3  2.50        -1.3606   0.0000                                                             
   Description                                                                                      
     l       E           TYP  RCUT    TYP  RCUT                                                     
     1    -45.4377911     23  2.000                                                                 
     1      1.3605826     23  2.000                                                                 
     2     -2.9136672     23  2.300                                                                 
     2     -4.2742498     23  2.300                                                                 
     0     -4.0071320     23  2.300                                                                 
     0      9.4498803     23  2.300                                                                 
     3      2.7211652     23  2.300                                                                 
  local pseudopotential read in
  partial core-charges read in
  partial kinetic energy density read in
  atomic valenz-charges read in
  non local Contribution for L=            1  read in
    real space projection operators read in
  non local Contribution for L=            1  read in
    real space projection operators read in
  non local Contribution for L=            2  read in
    real space projection operators read in
  non local Contribution for L=            2  read in
    real space projection operators read in
  non local Contribution for L=            0  read in
    real space projection operators read in
  non local Contribution for L=            0  read in
    real space projection operators read in
    PAW grid and wavefunctions read in
 
   number of l-projection  operators is LMAX  =            6
   number of lm-projection operators is LMMAX =           18
 
 POTCAR:    PAW_PBE Ti_pv 07Sep2000               
   SHA256 =  f757a1b2c6d082f4c628fa3d987464a8763bf92e53844ac0500b0e2ddc9ce5c0 Ti_pv/POTCAR          
   COPYR  = (c) Copyright 07Sep2000 Georg Kresse                                                    
   COPYR  = This file is part of the software VASP. Any use, copying, and all other rights are regul
   COPYR  = If you do not have a valid VASP license, you may not use, copy or distribute this file. 
   VRHFIN =Ti: d3 s1                                                                                
   LEXCH  = PE                                                                                      
   EATOM  =  1042.5995 eV,   76.6289 Ry                                                             
                                                                                                    
   TITEL  = PAW_PBE Ti_pv 07Sep2000                                                                 
   LULTRA =        F    use ultrasoft PP ?                                                          
   IUNSCR =        1    unscreen: 0-lin 1-nonlin 2-no                                               
   RPACOR =    2.200    partial core radius                                                         
   POMASS =   47.880; ZVAL   =   10.000    mass and valenz                                          
   RCORE  =    2.500    outmost cutoff radius                                                       
   RWIGS  =    2.500; RWIGS  =    1.323    wigner-seitz radius (au A)                               
   ENMAX  =  222.335; ENMIN  =  166.751 eV                                                          
   RCLOC  =    1.701    cutoff for local pot                                                        
   LCOR   =        T    correct aug charges                                                         
   LPAW   =        T    paw PP                                                                      
   EAUG   =  482.848                                                                                
   DEXC   =    0.000                                                                                
   RMAX   =    2.564    core radius for proj-oper                                                   
   RAUG   =    1.300    factor for augmentation sphere                                              
   RDEP   =    2.538    radius for radial grids                                                     
   RDEPT  =    1.952    core radius for aug-charge                                                  
                                                                                                    
   Atomic configuration                                                                             
    8 entries                                                                                       
     n  l   j            E        occ.                                                              
     1  0  0.50     -4865.3608   2.0000                                                             
     2  0  0.50      -533.1368   2.0000                                                             
     2  1  1.50      -440.5031   6.0000                                                             
     3  0  0.50       -59.3186   2.0000                                                             
     3  1  1.50       -35.7012   6.0000                                                             
     3  2  2.50        -1.9157   3.0000                                                             
     4  0  0.50        -3.7291   1.0000                                                             
     4  3  2.50        -1.3606   0.0000                                                             
   Description                                                                                      
     l       E           TYP  RCUT    TYP  RCUT                                                     
     1    -35.7012140     23  2.300                                                                 
     1     -1.3605826     23  2.300                                                                 
     2     -1.9156996     23  2.500                                                                 
     2     -0.4063033     23  2.500                                                                 
     0     -3.7290856     23  2.500                                                                 
     0     20.4087390     23  2.500                                                                 
  local pseudopotential read in
  partial core-charges read in
  partial kinetic energy density read in
  atomic valenz-charges read in
  non local Contribution for L=            1  read in
    real space projection operators read in
  non local Contribution for L=            1  read in
    real space projection operators read in
  non local Contribution for L=            2  read in
    real space projection operators read in
  non local Contribution for L=            2  read in
    real space projection operators read in
  non local Contribution for L=            0  read in
    real space projection operators read in
  non local Contribution for L=            0  read in
    real space projection operators read in
    PAW grid and wavefunctions read in
 
   number of l-projection  operators is LMAX  =            6
   number of lm-projection operators is LMMAX =           18
 
 POTCAR:    PAW_PBE V_pv 07Sep2000                
   SHA256 =  1175d3c8cb4ffd1d150a520fa74fae5c3ec72c0849b5615a94a5372dd2cf07f7 V_pv/POTCAR           
   COPYR  = (c) Copyright 07Sep2000 Georg Kresse                                                    
   COPYR  = This file is part of the software VASP. Any use, copying, and all other rights are regul
   COPYR  = If you do not have a valid VASP license, you may not use, copy or distribute this file. 
   VRHFIN =V: p6 d4 s1                                                                              
   LEXCH  = PE                                                                                      
   EATOM  =  1321.6206 eV,   97.1364 Ry                                                             
                                                                                                    
   TITEL  = PAW_PBE V_pv 07Sep2000                                                                  
   LULTRA =        F    use ultrasoft PP ?                                                          
   IUNSCR =        1    unscreen: 0-lin 1-nonlin 2-no                                               
   RPACOR =    1.700    partial core radius                                                         
   POMASS =   50.941; ZVAL   =   11.000    mass and valenz                                          
   RCORE  =    2.300    outmost cutoff radius                                                       
   RWIGS  =    2.300; RWIGS  =    1.217    wigner-seitz radius (au A)                               
   ENMAX  =  263.673; ENMIN  =  197.755 eV                                                          
   RCLOC  =    1.779    cutoff for local pot                                                        
   LCOR   =        T    correct aug charges                                                         
   LPAW   =        T    paw PP                                                                      
   EAUG   =  598.473                                                                                
   DEXC   =    0.000                                                                                
   RMAX   =    2.359    core radius for proj-oper                                                   
   RAUG   =    1.300    factor for augmentation sphere                                              
   RDEP   =    2.430    radius for radial grids                                                     
   RDEPT  =    1.700    core radius for aug-charge                                                  
                                                                                                    
   Atomic configuration                                                                             
    8 entries                                                                                       
     n  l   j            E        occ.                                                              
     1  0  0.50     -5360.7193   2.0000                                                             
     2  0  0.50      -598.4546   2.0000                                                             
     2  1  1.50      -499.0155   6.0000                                                             
     3  0  0.50       -66.5711   2.0000                                                             
     3  1  1.50       -40.5282   6.0000                                                             
     3  2  2.50        -2.4291   4.0000                                                             
     4  0  0.50        -3.8743   1.0000                                                             
     4  3  2.50        -1.3606   0.0000                                                             
   Description                                                                                      
     l       E           TYP  RCUT    TYP  RCUT                                                     
     1    -40.5282431     23  2.000                                                                 
     1      5.4423304     23  2.000                                                                 
     2     -2.4290905     23  2.300                                                                 
     2     -1.0472488     23  2.300                                                                 
     0     -3.8742754     23  2.300                                                                 
     0     27.2116520     23  2.300                                                                 
  local pseudopotential read in
  partial core-charges read in
  partial kinetic energy density read in
  atomic valenz-charges read in
  non local Contribution for L=            1  read in
    real space projection operators read in
  non local Contribution for L=            1  read in
    real space projection operators read in
  non local Contribution for L=            2  read in
    real space projection operators read in
  non local Contribution for L=            2  read in
    real space projection operators read in
  non local Contribution for L=            0  read in
    real space projection operators read in
  non local Contribution for L=            0  read in
    real space projection operators read in
    PAW grid and wavefunctions read in
 
   number of l-projection  operators is LMAX  =            6
   number of lm-projection operators is LMMAX =           18
 
 POTCAR:    PAW_PBE W_sv 04Sep2015                
   SHA256 =  931c2d770f65867ef30f3db3421922900fc0890ebac5c3e12f63b6a2064023d7 W_sv/POTCAR           
   COPYR  = (c) Copyright 04Sep2015 Georg Kresse                                                    
   COPYR  = This file is part of the software VASP. Any use, copying, and all other rights are regul
   COPYR  = If you do not have a valid VASP license, you may not use, copy or distribute this file. 
   VRHFIN =W : 5p6s5d                                                                               
   LEXCH  = PE                                                                                      
   EATOM  =  1865.5791 eV,  137.1162 Ry                                                             
                                                                                                    
   TITEL  = PAW_PBE W_sv 04Sep2015                                                                  
   LULTRA =        F    use ultrasoft PP ?                                                          
   IUNSCR =        1    unscreen: 0-lin 1-nonlin 2-no                                               
   RPACOR =    2.330    partial core radius                                                         
   POMASS =  183.850; ZVAL   =   14.000    mass and valenz                                          
   RCORE  =    2.500    outmost cutoff radius                                                       
   RWIGS  =    2.750; RWIGS  =    1.455    wigner-seitz radius (au A)                               
   ENMAX  =  223.057; ENMIN  =  167.293 eV                                                          
   ICORE  =        3    local potential                                                             
   LCOR   =        T    correct aug charges                                                         
   LPAW   =        T    paw PP                                                                      
   EAUG   =  373.438                                                                                
   DEXC   =    0.000                                                                                
   RMAX   =    2.565    core radius for proj-oper                                                   
   RAUG   =    1.300    factor for augmentation sphere                                              
   RDEP   =    2.539    radius for radial grids                                                     
   RDEPT  =    2.126    core radius for aug-charge                                                  
                                                                                                    
   Atomic configuration                                                                             
   15 entries                                                                                       
     n  l   j            E        occ.                                                              
     1  0  0.50    -69465.5834   2.0000                                                             
     2  0  0.50    -11986.2640   2.0000                                                             
     2  1  1.50    -10479.8613   6.0000                                                             
     3  0  0.50     -2759.0756   2.0000                                                             
     3  1  1.50     -2313.1855   6.0000                                                             
     3  2  2.50     -1801.1183  10.0000                                                             
     4  0  0.50      -567.6789   2.0000                                                             
     4  1  1.50      -421.4692   6.0000                                                             
     4  2  2.50      -236.3471  10.0000                                                             
     4  3  3.50       -31.2665  14.0000                                                             
     5  0  0.50       -77.1084   2.0000                                                             
     6  0  0.50        -5.1438   1.0000                                                             
     5  1  1.50       -41.3856   6.0000                                                             
     5  2  2.50        -3.3185   5.0000                                                             
     5  3  2.50        -1.3606   0.0000                                                             
   Description                                                                                      
     l       E           TYP  RCUT    TYP  RCUT                                                     
     0    -77.1084470     23  2.100                                                                 
     0     -5.1437956     23  2.300                                                                 
     1    -41.3855615     23  2.500                                                                 
     1     -2.7211652     23  2.500                                                                 
     2     -3.3185025     23  2.500                                                                 
     2     -1.5965151     23  2.500                                                                 
     3     -1.3605826     23  2.500                                                                 
  local pseudopotential read in
  partial core-charges read in
  partial kinetic energy density read in
  kinetic energy density of atom read in
  atomic valenz-charges read in
  non local Contribution for L=            0  read in
    real space projection operators read in
  non local Contribution for L=            0  read in
    real space projection operators read in
  non local Contribution for L=            1  read in
    real space projection operators read in
  non local Contribution for L=            1  read in
    real space projection operators read in
  non local Contribution for L=            2  read in
    real space projection operators read in
  non local Contribution for L=            2  read in
    real space projection operators read in
    PAW grid and wavefunctions read in
 
   number of l-projection  operators is LMAX  =            6
   number of lm-projection operators is LMMAX =           18
 
 POTCAR:    PAW_PBE Zr_sv 04Jan2005               
   SHA256 =  25aed69cb10325f9d37c5c68912b61a17387d1f8e4f1d804860ffa10c8a4bf76 Zr_sv/POTCAR          
   COPYR  = (c) Copyright 04Jan2005 Georg Kresse                                                    
   COPYR  = This file is part of the software VASP. Any use, copying, and all other rights are regul
   COPYR  = If you do not have a valid VASP license, you may not use, copy or distribute this file. 
   VRHFIN =Zr: 4s4p5s4d                                                                             
   LEXCH  = PE                                                                                      
   EATOM  =  1284.2219 eV,   94.3876 Ry                                                             
                                                                                                    
   TITEL  = PAW_PBE Zr_sv 04Jan2005                                                                 
   LULTRA =        F    use ultrasoft PP ?                                                          
   IUNSCR =        1    unscreen: 0-lin 1-nonlin 2-no                                               
   RPACOR =    2.200    partial core radius                                                         
   POMASS =   91.224; ZVAL   =   12.000    mass and valenz                                          
   RCORE  =    2.500    outmost cutoff radius                                                       
   RWIGS  =    3.070; RWIGS  =    1.625    wigner-seitz radius (au A)                               
   ENMAX  =  229.898; ENMIN  =  172.424 eV                                                          
   ICORE  =        3    local potential                                                             
   LCOR   =        T    correct aug charges                                                         
   LPAW   =        T    paw PP                                                                      
   EAUG   =  461.257                                                                                
   DEXC   =    0.000                                                                                
   RMAX   =    2.561    core radius for proj-oper                                                   
   RAUG   =    1.300    factor for augmentation sphere                                              
   RDEP   =    2.597    radius for radial grids                                                     
   RDEPT  =    2.007    core radius for aug-charge                                                  
                                                                                                    
   Atomic configuration                                                                             
   11 entries                                                                                       
     n  l   j            E        occ.                                                              
     1  0  0.50    -17820.0161   2.0000                                                             
     2  0  0.50     -2467.0882   2.0000                                                             
     2  1  1.50     -2199.6095   6.0000                                                             
     3  0  0.50      -402.4863   2.0000                                                             
     3  1  1.50      -315.3675   6.0000                                                             
     3  2  2.50      -172.4472  10.0000                                                             
     4  0  0.50       -52.4146   2.0000                                                             
     5  0  0.50        -3.8421   1.0000                                                             
     4  1  1.50       -30.5054   6.0000                                                             
     4  2  2.50        -2.3341   3.0000                                                             
     4  3  2.50        -1.3606   0.0000                                                             
   Description                                                                                      
     l       E           TYP  RCUT    TYP  RCUT                                                     
     0    -52.4145962     23  2.200                                                                 
     0     -3.8421270     23  2.500                                                                 
     1    -30.5053914     23  2.200                                                                 
     1     20.4087390     23  2.200                                                                 
     2     -2.3340816     23  2.500                                                                 
     2     -0.6120942     23  2.500                                                                 
     3     -4.0817478     23  2.500                                                                 
  local pseudopotential read in
  partial core-charges read in
  partial kinetic energy density read in
  atomic valenz-charges read in
  non local Contribution for L=            0  read in
    real space projection operators read in
  non local Contribution for L=            0  read in
    real space projection operators read in
  non local Contribution for L=            1  read in
    real space projection operators read in
  non local Contribution for L=            1  read in
    real space projection operators read in
  non local Contribution for L=            2  read in
    real space projection operators read in
  non local Contribution for L=            2  read in
    real space projection operators read in
    PAW grid and wavefunctions read in
 
   number of l-projection  operators is LMAX  =            6
   number of lm-projection operators is LMMAX =           18
 
 -----------------------------------------------------------------------------
|                                                                             |
|               ----> ADVICE to this user running VASP <----                  |
|                                                                             |
|     You have a (more or less) 'large supercell' and for larger cells it     |
|     might be more efficient to use real-space projection operators.         |
|     Therefore, try LREAL= Auto in the INCAR file.                           |
|     Mind: For very accurate calculation, you might also keep the            |
|     reciprocal projection scheme (i.e. LREAL=.FALSE.).                      |
|                                                                             |
 -----------------------------------------------------------------------------

  PAW_PBE Cr_pv 02Aug2007               :
 energy of atom  1       EATOM=-1647.9177
 kinetic energy error for atom=    0.0057 (will be added to EATOM!!)
  PAW_PBE Ti_pv 07Sep2000               :
 energy of atom  2       EATOM=-1042.5995
 kinetic energy error for atom=    0.0019 (will be added to EATOM!!)
  PAW_PBE V_pv 07Sep2000                :
 energy of atom  3       EATOM=-1321.6206
 kinetic energy error for atom=    0.0054 (will be added to EATOM!!)
  PAW_PBE W_sv 04Sep2015                :
 energy of atom  4       EATOM=-1865.5791
 kinetic energy error for atom=    0.0026 (will be added to EATOM!!)
  PAW_PBE Zr_sv 04Jan2005               :
 energy of atom  5       EATOM=-1284.2219
 kinetic energy error for atom=    0.0043 (will be added to EATOM!!)
 
 
 POSCAR: Cr Ti V  W  Zr
  positions in cartesian coordinates
  No initial velocities read in
 exchange correlation table for  LEXCH =        8
   RHO(1)=    0.500       N(1)  =     2000
   RHO(2)=  100.500       N(2)  =     4000
 


--------------------------------------------------------------------------------------------------------


 ion  position               nearest neighbor table
   1  0.002  0.404  0.004-  21 2.51  17 2.55  25 2.55  49 2.55  24 2.57  44 2.60 107 2.60  10 2.62
                            48 2.91  45 2.96  26 3.00 111 3.04
   2  0.402  0.005  0.800-   3 2.51  81 2.54  80 2.55  75 2.55  59 2.57  39 2.57  54 2.59  56 2.63
                            84 2.93  55 2.95  38 2.97  60 2.99  76 3.00
   3  0.402  0.198  0.802-  84 2.50   2 2.51  63 2.52  85 2.55  60 2.58  43 2.59  38 2.59  66 2.60
                            81 2.94  39 2.96  42 2.98  59 2.98  88 3.00
   4  0.398  0.605  0.599-  51 2.51  98 2.51  46 2.53  92 2.55  74 2.57  70 2.58  69 2.59   9 2.72
                            50 3.02  97 3.02  93 3.05  75 3.05 119 3.09 118 3.14
   5  0.598  0.396  0.397- 114 2.54  87 2.54  61 2.54  86 2.58 120 2.60 119 2.62  91 2.65 109 2.67
                            82 3.02  65 3.03 110 3.03  92 3.04 121 3.04
   6  0.800  0.001  0.198-  77 2.52  13 2.54  99 2.55  94 2.59 104 2.64 122 2.65 100 2.65 105 2.84
                             7 2.93 115 2.96  76 3.04
   7  0.992  0.204  0.204- 104 2.56  21 2.63  99 2.64  41 2.69  18 2.70  46 2.71  13 2.72  17 2.74
                            22 2.85   6 2.93 103 2.96  12 3.01
   8  0.201  0.805  0.006-  30 2.62  57 2.64  52 2.64  35 2.66  71 2.76  55 2.76  48 2.77  29 2.78
                            34 2.93  36 2.99  72 3.03 123 3.05
   9  0.389  0.392  0.594- 118 2.63 119 2.67  66 2.69  63 2.69  93 2.70  87 2.70   4 2.72  18 2.87
                            70 2.97  62 2.97  42 3.00  46 3.01  92 3.02
  10  0.802  0.204  0.801- 111 2.55 102 2.56   1 2.62 103 2.66  20 2.67  79 2.69 106 2.70  84 2.70
                            24 2.92  17 2.95 107 2.97  83 3.01 101 3.04
  11  0.789  0.586  0.797- 111 2.52  29 2.60 112 2.64  87 2.64  93 2.65 114 2.75 124 2.77  30 2.82
                            88 2.88 110 3.04
  12  0.009  0.015  0.012-  41 2.45  13 2.57  35 2.59  17 2.61  99 2.69  16 2.70  30 2.72 124 2.74
                             7 3.01
  13  0.991  0.993  0.194-  18 2.50 115 2.51   6 2.54  12 2.57  31 2.63  36 2.63  14 2.68   7 2.72
                            30 2.90 122 2.97
  14  0.997  1.000  0.404- 100 2.55  15 2.56  37 2.57 122 2.63  42 2.63  32 2.63  18 2.65  13 2.68
                            19 2.89
  15  0.002  0.000  0.602-  14 2.56  16 2.58  33 2.60  19 2.60  38 2.61  43 2.62 101 2.62 116 2.62

  16  0.003  0.004  0.801-  20 2.55  15 2.58  40 2.59  39 2.63 117 2.67 102 2.68  12 2.70  34 2.71
                           124 3.02
  17  0.999  0.205  0.997-   1 2.55  45 2.58  20 2.59 102 2.59  12 2.61 103 2.62  40 2.64   7 2.74
                            10 2.95
  18  0.140  0.195  0.398-  13 2.50  42 2.57  14 2.65  46 2.68 118 2.68   7 2.70  37 2.84   9 2.87
                            41 2.89
  19  0.001  0.196  0.594- 106 2.55  42 2.56  15 2.60 100 2.60  47 2.63  20 2.65  23 2.67  14 2.89
                           105 2.90 118 2.91
  20  0.003  0.198  0.798-  16 2.55  24 2.58  17 2.59 101 2.59  43 2.61  44 2.62  19 2.65  10 2.67
                            47 2.91
  21  1.000  0.405  0.196-   1 2.51  26 2.55 108 2.59  45 2.60  50 2.61 103 2.63   7 2.63  22 2.66

  22  0.000  0.398  0.397- 109 2.58  46 2.59  27 2.63  51 2.65  21 2.66  23 2.66 104 2.70   7 2.85
                           105 2.85 118 2.94
  23  0.996  0.400  0.600- 110 2.52 105 2.55 118 2.56  28 2.60  22 2.66  19 2.67  24 2.68 123 2.73
                           106 2.92
  24  1.000  0.396  0.804-   1 2.57  20 2.58 111 2.61 106 2.62  29 2.66  47 2.66  23 2.68  48 2.69
                            10 2.92 123 3.13
  25  0.999  0.597  0.001-   1 2.55  26 2.59  48 2.61 111 2.64 112 2.64  29 2.66  30 2.66  52 2.68

  26  0.998  0.600  0.200-  21 2.55  31 2.57  27 2.58 113 2.59  25 2.59 107 2.62  49 2.63  53 2.66
                             1 3.00
  27  0.002  0.600  0.399-  50 2.57  26 2.58  28 2.59  32 2.60 121 2.63  22 2.63 108 2.64  54 2.66

  28  0.001  0.600  0.597-  27 2.59  23 2.60 109 2.61  33 2.62 114 2.64  51 2.65  29 2.66  55 2.66
                           121 3.01 123 3.12
  29  0.988  0.592  0.793- 110 2.53  11 2.60  34 2.60  25 2.66  28 2.66  24 2.66 123 2.76   8 2.78

  30  0.002  0.804  0.011-  36 2.54  31 2.56   8 2.62 115 2.64  25 2.66  12 2.72  34 2.78  11 2.82
                            13 2.90 124 3.08
  31  0.001  0.799  0.205-  30 2.56  32 2.56  26 2.57  52 2.57  37 2.61  13 2.63 122 2.63 112 2.66

  32  0.004  0.801  0.402-  53 2.56  31 2.56  27 2.60  33 2.60  38 2.61  14 2.63 116 2.66 113 2.69
                           121 3.05 122 3.06
  33  0.002  0.802  0.600-  34 2.58  32 2.60  15 2.60  54 2.61  28 2.62 117 2.62  39 2.63 121 2.65
                            55 2.91
  34  0.014  0.801  0.802-  55 2.43  33 2.58  29 2.60  35 2.62  16 2.71 124 2.74  30 2.78 114 2.80
                             8 2.93
  35  0.203  0.009  0.005-  40 2.55  61 2.57  12 2.59  34 2.62  36 2.63  56 2.64  39 2.64   8 2.66

  36  0.198  0.002  0.202-  62 2.54  30 2.54  41 2.60  52 2.61  37 2.63  13 2.63  35 2.63  57 2.67
                             8 2.99
  37  0.196  0.004  0.404-  14 2.57  38 2.58  31 2.61  63 2.61  36 2.63  53 2.64  58 2.67  18 2.84

  38  0.203  0.001  0.602-  42 2.54  54 2.57  37 2.58  59 2.58   3 2.59  39 2.60  32 2.61  15 2.61
                            63 2.91   2 2.97
  39  0.205  0.002  0.801-  55 2.47  43 2.56   2 2.57  60 2.59  38 2.60  33 2.63  16 2.63  35 2.64
                             3 2.96
  40  0.200  0.201  0.001-  35 2.55  65 2.58  16 2.59  44 2.59  43 2.59  60 2.64  17 2.64  41 2.67

  41  0.196  0.200  0.203-  12 2.45 119 2.57  36 2.60  45 2.62  40 2.67   7 2.69  61 2.71  18 2.89

  42  0.201  0.197  0.607-  43 2.53  38 2.54  19 2.56  18 2.57  66 2.59  63 2.60  14 2.63 118 2.71
                             3 2.98   9 3.00
  43  0.204  0.198  0.803-  47 2.52  42 2.53  39 2.56   3 2.59  40 2.59  20 2.61  64 2.61  15 2.62

  44  0.199  0.399  0.002-  48 2.53  45 2.56  47 2.57  40 2.59   1 2.60  20 2.62  68 2.63  64 2.64

  45  0.197  0.399  0.197-  44 2.56  17 2.58  46 2.58  21 2.60  49 2.61  41 2.62  65 2.63  69 2.67
                             1 2.96 119 3.01
  46  0.205  0.414  0.402-   4 2.53  50 2.54  45 2.58  22 2.59 119 2.62  18 2.68 118 2.68   7 2.71
                            51 2.89   9 3.01
  47  0.201  0.391  0.804-  43 2.52  66 2.56  44 2.57  19 2.63  24 2.66  67 2.68 118 2.70 123 2.77
                            20 2.91
  48  0.205  0.598  0.016-  49 2.42  44 2.53  72 2.59  25 2.61  67 2.65  24 2.69 123 2.76   8 2.77
                            68 2.88   1 2.91
  49  0.198  0.600  0.199-  48 2.42   1 2.55  50 2.56  45 2.61  26 2.63  68 2.63  52 2.63  73 2.64

  50  0.199  0.604  0.397-  51 2.54  46 2.54  49 2.56  27 2.57  53 2.58  69 2.61  74 2.61  21 2.61
                             4 3.02
  51  0.205  0.605  0.593-   4 2.51  50 2.54  54 2.59  22 2.65  28 2.65  75 2.66 118 2.69 123 2.80
                            46 2.89
  52  0.200  0.804  0.207-  53 2.55  31 2.57  58 2.58  36 2.61  49 2.63   8 2.64  72 2.66  25 2.68

  53  0.201  0.804  0.402-  52 2.55  32 2.56  50 2.58  54 2.58  59 2.59  73 2.61  37 2.64  26 2.66

  54  0.204  0.806  0.601-  55 2.54  38 2.57  53 2.58  51 2.59   2 2.59  74 2.60  33 2.61  27 2.66

  55  0.201  0.811  0.796-  34 2.43  39 2.47  54 2.54  75 2.61  56 2.61  28 2.66   8 2.76 123 2.77
                            33 2.91   2 2.95
  56  0.402  0.004  0.001-  82 2.58  60 2.58  76 2.60  71 2.61  55 2.61   2 2.63  35 2.64  57 2.66

  57  0.405  0.007  0.206- 120 2.55  61 2.57  58 2.61  72 2.63   8 2.64  56 2.66  36 2.67  77 2.70

  58  0.399  0.003  0.402-  62 2.56  83 2.57  52 2.58  73 2.59  57 2.61  59 2.61  37 2.67  78 2.69
                           120 3.06
  59  0.400  0.000  0.602-  63 2.52   2 2.57  84 2.58  38 2.58  53 2.59  74 2.59  79 2.60  58 2.61
                             3 2.98
  60  0.402  0.201  0.000-  81 2.57  86 2.57   3 2.58  56 2.58  64 2.58  39 2.59  61 2.63  40 2.64
                             2 2.99
  61  0.403  0.201  0.202-   5 2.54  35 2.57  57 2.57  65 2.62  82 2.62  60 2.63  62 2.67  41 2.71
                           119 2.98 120 3.01
  62  0.391  0.194  0.400-  87 2.53  36 2.54  58 2.56 119 2.66  61 2.67  63 2.68 120 2.76   9 2.97

  63  0.400  0.195  0.608-   3 2.52  59 2.52  88 2.56  42 2.60  37 2.61  83 2.63  62 2.68   9 2.69
                            84 2.86  38 2.91
  64  0.401  0.400  0.004-  90 2.55  65 2.56  66 2.58  60 2.58  67 2.59  85 2.60  43 2.61  44 2.64

  65  0.398  0.398  0.198-  64 2.56  40 2.58 119 2.58  86 2.60  68 2.61  61 2.62  91 2.62  45 2.63
                             5 3.03
  66  0.400  0.396  0.804-  47 2.56  89 2.57  64 2.58  42 2.59   3 2.60  88 2.60  70 2.67   9 2.69
                           118 3.17
  67  0.404  0.600  0.007-  89 2.55  95 2.56  68 2.57  64 2.59  48 2.65  47 2.68  71 2.73  70 2.76
                            90 2.91 123 3.02
  68  0.401  0.600  0.202-  67 2.57  90 2.57  69 2.58  96 2.60  65 2.61  44 2.63  49 2.63  72 2.65
                            48 2.88
  69  0.400  0.604  0.401-  68 2.58  97 2.58   4 2.59  50 2.61  91 2.61  73 2.62 119 2.66  45 2.67

  70  0.409  0.601  0.798-  93 2.38   4 2.58  94 2.60  66 2.67 123 2.68 118 2.74  67 2.76  75 2.76
                            98 2.89   9 2.97
  71  0.420  0.817  0.017-  77 2.43  94 2.51  72 2.58  56 2.61  67 2.73  75 2.73 123 2.75   8 2.76
                            95 2.87  76 2.89
  72  0.403  0.804  0.204-  73 2.57  71 2.58  78 2.58  48 2.59  95 2.59  57 2.63  68 2.65  52 2.66
                             8 3.03
  73  0.400  0.804  0.399-  79 2.55  72 2.57  58 2.59  96 2.60  74 2.60  53 2.61  69 2.62  49 2.64

  74  0.401  0.802  0.598-   4 2.57  97 2.58  80 2.59  59 2.59  54 2.60  73 2.60  75 2.61  50 2.61
                            98 2.90
  75  0.402  0.810  0.801-  98 2.51  76 2.53   2 2.55  74 2.61  55 2.61  51 2.66  71 2.73  70 2.76
                            80 2.92   4 3.05 123 3.07
  76  0.598  0.999  0.996-  75 2.53 104 2.53  99 2.55  80 2.59  81 2.59  56 2.60  94 2.61  77 2.63
                            71 2.89   2 3.00   6 3.04
  77  0.609  0.002  0.201-  71 2.43   6 2.52  95 2.60  76 2.63 105 2.63  78 2.63  82 2.63  57 2.70
                           120 3.02
  78  0.604  1.000  0.400- 100 2.58  96 2.58  72 2.58  79 2.59 106 2.60 120 2.63  77 2.63  58 2.69

  79  0.597  0.998  0.596-  73 2.55  97 2.56  83 2.58  78 2.59  59 2.60  80 2.64 101 2.65  10 2.69

  80  0.595  0.001  0.798-   2 2.55  74 2.59  76 2.59  98 2.60  84 2.61 102 2.63 103 2.63  79 2.64
                            75 2.92
  81  0.596  0.197  0.997-   2 2.54  60 2.57  85 2.58  84 2.59  82 2.59  76 2.59 103 2.60 108 2.63
                           104 2.92   3 2.94
  82  0.602  0.199  0.198- 104 2.49  56 2.58  86 2.58  81 2.59 109 2.61 120 2.62  61 2.62  77 2.63
                             5 3.02
  83  0.599  0.197  0.598-  58 2.57  79 2.58  87 2.59 111 2.60  84 2.63  63 2.63 120 2.64 106 2.73
                            10 3.01
  84  0.593  0.201  0.799-   3 2.50  88 2.56  59 2.58  81 2.59  80 2.61 107 2.63  83 2.63  10 2.70
                            63 2.86   2 2.93
  85  0.596  0.394  0.997-   3 2.55  81 2.58  64 2.60  89 2.61  88 2.62 113 2.62  86 2.64 107 2.64

  86  0.597  0.396  0.200-  60 2.57   5 2.58  82 2.58  65 2.60 121 2.62  85 2.64  90 2.64 108 2.64

  87  0.591  0.387  0.586-  62 2.53   5 2.54  83 2.59  11 2.64 110 2.66  92 2.68   9 2.70  88 2.70
                           120 2.93 119 2.99
  88  0.596  0.397  0.798-  84 2.56  63 2.56  66 2.60  85 2.62 112 2.63 111 2.64  93 2.64  87 2.70
                            11 2.88   3 3.00
  89  0.596  0.595  0.000-  67 2.55  66 2.57  90 2.59  93 2.59  85 2.61 112 2.62 122 2.64  94 2.70

  90  0.595  0.596  0.199-  64 2.55  68 2.57  89 2.59  91 2.59  95 2.63  86 2.64 113 2.65 116 2.67
                            67 2.91 121 3.03 122 3.05
  91  0.598  0.599  0.399-  90 2.59  92 2.60  69 2.61 117 2.61  65 2.62  96 2.63 121 2.64   5 2.65
                           119 3.00
  92  0.587  0.592  0.592- 119 2.54   4 2.55  91 2.60  87 2.68  97 2.69  93 2.70 114 2.72 124 2.76
                             9 3.02   5 3.04
  93  0.592  0.599  0.802-  70 2.38  89 2.59  88 2.64 115 2.64  11 2.65  98 2.68   9 2.70  92 2.70
                             4 3.05 124 3.16
  94  0.601  0.803  0.001-  71 2.51 115 2.55   6 2.59  70 2.60  76 2.61  95 2.65  98 2.65  89 2.70
                           122 3.02
  95  0.598  0.799  0.201-  67 2.56  72 2.59 100 2.59  96 2.60  77 2.60 122 2.61  90 2.63  94 2.65
                            71 2.87
  96  0.599  0.801  0.401-  97 2.55  78 2.58  68 2.60  95 2.60  73 2.60  91 2.63 101 2.63 116 2.64

  97  0.598  0.803  0.597-  96 2.55  79 2.56  74 2.58  69 2.58  98 2.62 102 2.64 117 2.65  92 2.69
                             4 3.02 124 3.08
  98  0.588  0.799  0.792-  75 2.51   4 2.51  80 2.60  97 2.62  94 2.65  99 2.68  93 2.68 124 2.78
                            70 2.89  74 2.90
  99  0.794  0.999  0.000-   6 2.55  76 2.55 103 2.60   7 2.64 115 2.65 102 2.67  98 2.68  12 2.69
                           124 3.08
 100  0.799  0.996  0.399-  14 2.55 116 2.57  78 2.58  95 2.59 101 2.59 105 2.60  19 2.60   6 2.65
                           122 2.97
 101  0.802  0.003  0.600- 117 2.56 106 2.57  20 2.59 100 2.59 102 2.61  15 2.62  96 2.63  79 2.65
                            10 3.04
 102  0.799  0.006  0.800-  10 2.56  17 2.59 101 2.61  80 2.63  97 2.64  99 2.67  16 2.68 124 2.69

 103  0.797  0.199  0.001- 104 2.51 107 2.60  81 2.60  99 2.60  17 2.62  21 2.63  80 2.63  10 2.66
                             7 2.96
 104  0.789  0.197  0.190-  82 2.49 103 2.51  76 2.53   7 2.56 108 2.56 105 2.56   6 2.64  22 2.70
                            81 2.92
 105  0.820  0.199  0.395-  23 2.55 104 2.56 100 2.60  77 2.63 109 2.67 106 2.68   6 2.84 120 2.84
                            22 2.85  19 2.90
 106  0.807  0.198  0.595-  19 2.55 101 2.57  78 2.60 110 2.61  24 2.62 105 2.68  10 2.70  83 2.73
                            23 2.92 120 3.02
 107  0.800  0.398  0.999- 112 2.55 108 2.59 103 2.60   1 2.60  26 2.62 111 2.62  84 2.63  85 2.64
                            10 2.97
 108  0.799  0.398  0.197- 104 2.56 113 2.57 107 2.59  21 2.59 109 2.61  81 2.63  86 2.64  27 2.64
                           121 3.02
 109  0.803  0.397  0.397-  22 2.58  82 2.61 108 2.61  28 2.61 110 2.62 121 2.63 105 2.67   5 2.67
                           120 3.01
 110  0.801  0.396  0.596-  23 2.52  29 2.53 120 2.57 106 2.61 114 2.61 109 2.62 111 2.64  87 2.66
                             5 3.03  11 3.04
 111  0.798  0.396  0.798-  11 2.52  10 2.55  83 2.60  24 2.61 107 2.62  25 2.64  88 2.64 110 2.64
                             1 3.04
 112  0.797  0.593  0.004- 113 2.53 107 2.55  89 2.62  88 2.63  11 2.64  25 2.64  31 2.66 115 2.69
                           122 3.03
 113  0.797  0.594  0.198- 112 2.53 108 2.57 121 2.58  26 2.59  85 2.62  90 2.65 122 2.67  32 2.69

 114  0.794  0.591  0.590-   5 2.54 121 2.56 110 2.61  28 2.64  92 2.72 117 2.75  11 2.75  34 2.80
                           124 3.11
 115  0.797  0.799  0.005-  13 2.51 122 2.55  94 2.55  30 2.64  93 2.64  99 2.65 112 2.69 124 2.74
                             6 2.96
 116  0.801  0.801  0.401- 117 2.49 100 2.57 122 2.60  15 2.62 121 2.63  96 2.64  32 2.66  90 2.67

 117  0.799  0.804  0.592- 116 2.49 101 2.56  91 2.61  33 2.62  97 2.65  16 2.67 124 2.70 114 2.75
                           121 3.02
 118  0.189  0.395  0.595-  23 2.56   9 2.63  18 2.68  46 2.68  51 2.69  47 2.70  42 2.71  70 2.74
                            19 2.91  22 2.94 123 3.06   4 3.14  66 3.17
 119  0.397  0.398  0.394-  92 2.54  41 2.57  65 2.58   5 2.62  46 2.62  69 2.66  62 2.66   9 2.67
                            61 2.98  87 2.99  91 3.00  45 3.01   4 3.09
 120  0.604  0.200  0.399-  57 2.55 110 2.57   5 2.60  82 2.62  78 2.63  83 2.64  62 2.76 105 2.84
                            87 2.93 109 3.01  61 3.01  77 3.02 106 3.02  58 3.06
 121  0.799  0.598  0.398- 114 2.56 113 2.58  86 2.62  27 2.63 116 2.63 109 2.63  91 2.64  33 2.65
                            28 3.01 117 3.02 108 3.02  90 3.03   5 3.04  32 3.05
 122  0.798  0.799  0.201- 115 2.55 116 2.60  95 2.61  14 2.63  31 2.63  89 2.64   6 2.65 113 2.67
                            13 2.97 100 2.97  94 3.02 112 3.03  90 3.05  32 3.06
 123  0.209  0.606  0.809-  70 2.68  23 2.73  71 2.75  29 2.76  48 2.76  47 2.77  55 2.77  51 2.80
                            67 3.02   8 3.05 118 3.06  75 3.07  28 3.12  24 3.13
 124  0.804  0.802  0.799- 102 2.69 117 2.70 115 2.74  12 2.74  34 2.74  92 2.76  11 2.77  98 2.78
                            16 3.02  99 3.08  97 3.08  30 3.08 114 3.11  93 3.16
 
  LATTYP: Found a triclinic cell.
 ALAT       =    36.9484934985
 B/A-ratio  =     0.3535186554
 C/A-ratio  =     0.5772698908
 COS(alpha) =     0.0002416466
 COS(beta)  =     0.2887267664
 COS(gamma) =     0.9428158987
  
  Lattice vectors:
  
 A1 = (  30.1710571640, -15.0866049150, -15.0762340640)
 A2 = (   7.5429280460,  -7.5406991980,  -7.5403885230)
 A3 = (  15.0799980970,  15.0841177710,  -0.0085907380)


Analysis of symmetry for initial positions (statically):
=====================================================================
 Subroutine PRICEL returns:
 Original cell was already a primitive cell.
 

 Routine SETGRP: Setting up the symmetry group for a 
 triclinic supercell.


 Subroutine GETGRP returns: Found  1 space group operations
 (whereof  1 operations were pure point group operations)
 out of a pool of  2 trial point group operations.


The static configuration has the point symmetry C_1 .


Analysis of symmetry for dynamics (positions and initial velocities):
=====================================================================
 Subroutine PRICEL returns:
 Original cell was already a primitive cell.
 

 Routine SETGRP: Setting up the symmetry group for a 
 triclinic supercell.


 Subroutine GETGRP returns: Found  1 space group operations
 (whereof  1 operations were pure point group operations)
 out of a pool of  2 trial point group operations.


The dynamic configuration has the point symmetry C_1 .


 Subroutine INISYM returns: Found  1 space group operations
 (whereof  1 operations are pure point group operations),
 and found     1 'primitive' translations


----------------------------------------------------------------------------------------

                                     Primitive cell                                     

  volume of cell :    1718.3948

  direct lattice vectors                    reciprocal lattice vectors
    -7.542928046  7.540699198  7.540388523     0.000002930  0.066329719  0.066289639
     7.547476001 -7.553831611  7.558065225     0.066270222  0.000080482  0.066212056
     7.537725071  7.548625092 -7.553522243     0.066313004  0.066294918  0.000037688

  length of vectors
    13.061981740 13.082397179 13.071141431     0.093776052  0.093679160  0.093767969

  position of ions in fractional coordinates (direct lattice)
     0.002351955  0.403693424  0.003904918
     0.401617982  0.005068793  0.799949440
     0.401974347  0.197644620  0.801924386
     0.398190902  0.604611107  0.598637847
     0.597732077  0.395710593  0.397205233
     0.800476393  0.001456726  0.198250960
     0.991536794  0.204173194  0.203742959
     0.201442910  0.805256137  0.005583649
     0.388545444  0.391990296  0.593704723
     0.802044347  0.203981250  0.801432681
     0.788696632  0.585516243  0.796777820
     0.008850566  0.014680744  0.011907654
     0.990662453  0.993061766  0.194315359
     0.997464095  0.999882034  0.403628975
     0.002165200  0.000498338  0.601510498
     0.003399814  0.004147828  0.800558373
     0.998545561  0.205372069  0.997040418
     0.139556479  0.194566727  0.397622193
     0.001184126  0.196395348  0.594094712
     0.003139035  0.198303357  0.798342688
     0.999619794  0.405180626  0.195864019
     0.000189071  0.397735345  0.396757138
     0.995728029  0.400253150  0.599587248
     0.999773411  0.396338898  0.804233442
     0.999443107  0.596652887  0.001055239
     0.997521942  0.600277441  0.199554460
     0.001802963  0.600242695  0.398564852
     0.001016039  0.599621471  0.596579897
     0.988155939  0.591825324  0.792698282
     0.002378394  0.804253152  0.010958039
     0.000764385  0.799373820  0.204609609
     0.004379651  0.800722415  0.402244995
     0.002408791  0.801550362  0.600481867
     0.014221335  0.801288011  0.801597089
     0.203200714  0.008949622  0.005244462
     0.197756572  0.001719271  0.202461275
     0.195969184  0.004328499  0.403657891
     0.202603497  0.001352509  0.601744628
     0.204612154  0.002424142  0.801305241
     0.200432604  0.201216258  0.000726192
     0.195664722  0.199887600  0.202789043
     0.201051201  0.196586209  0.607102940
     0.204059587  0.198322325  0.802538397
     0.199004900  0.399239551  0.002159632
     0.196803267  0.398909668  0.197291852
     0.204976382  0.413664039  0.401885538
     0.201458427  0.390579688  0.803686197
     0.204500753  0.598477026  0.015828844
     0.198179648  0.599727214  0.198824985
     0.199302878  0.604462593  0.396810751
     0.204685639  0.605008823  0.592885709
     0.200203681  0.804386389  0.207210396
     0.201186889  0.803893561  0.402376160
     0.204103594  0.805626081  0.601351888
     0.201095410  0.810520968  0.796168685
     0.402170912  0.004324752  0.001216577
     0.405093552  0.006652882  0.206153585
     0.399431384  0.002569332  0.402399953
     0.400038802  0.000433413  0.601516596
     0.402088122  0.201114277  0.000108988
     0.403343388  0.201325839  0.202027562
     0.391085506  0.194278181  0.399685568
     0.399963246  0.195185284  0.607933786
     0.401350763  0.399608112  0.003643976
     0.398091448  0.398181886  0.197625532
     0.399734565  0.396070617  0.804315032
     0.404422687  0.599703985  0.006724813
     0.400941129  0.600448728  0.202239761
     0.400316267  0.604155593  0.400742523
     0.408870584  0.600694071  0.797656753
     0.419975453  0.816966552  0.017433533
     0.402818111  0.804092148  0.204094979
     0.400100046  0.803682353  0.399492229
     0.400772503  0.801541961  0.598041107
     0.402147371  0.810498595  0.800692507
     0.597547640  0.999304562  0.996303471
     0.608702098  0.001540315  0.201395066
     0.603576448  0.999560937  0.400460551
     0.596501475  0.998032584  0.595519295
     0.594916167  0.001304061  0.798101206
     0.596009839  0.197132921  0.996753433
     0.602024486  0.199390547  0.197711112
     0.598706038  0.196553255  0.598389507
     0.593468737  0.201026665  0.799475703
     0.595986494  0.394101422  0.997124749
     0.597488210  0.396053661  0.199881936
     0.590972752  0.387317083  0.586394239
     0.596399062  0.396789879  0.797693345
     0.596019441  0.594686221  0.000408175
     0.595074303  0.596291606  0.198531526
     0.597759098  0.598863493  0.398752408
     0.586734240  0.592417059  0.591896172
     0.592086896  0.598824602  0.802428383
     0.601082381  0.802542487  0.000769594
     0.598430467  0.799267015  0.201372340
     0.598740785  0.800952662  0.400891202
     0.598335033  0.803086666  0.596895048
     0.587507976  0.798600911  0.792356994
     0.793826210  0.998878542  0.000320011
     0.799080825  0.995751896  0.398934108
     0.802071399  0.002539484  0.600323056
     0.798518070  0.006483589  0.800160466
     0.797318700  0.199231292  0.001372323
     0.788962762  0.196521865  0.189625553
     0.819699556  0.199181268  0.394957219
     0.806887645  0.198484642  0.594969613
     0.799669860  0.397766324  0.999039555
     0.798953625  0.397650501  0.196685615
     0.802731395  0.397494799  0.397255494
     0.800669312  0.395994060  0.596390198
     0.798102159  0.396072207  0.797500787
     0.797132080  0.593182933  0.004109458
     0.797064246  0.593945901  0.198145436
     0.793839773  0.590597892  0.589651762
     0.796664956  0.798701959  0.005204830
     0.800650110  0.800780383  0.401200019
     0.799493841  0.803531657  0.591893254
     0.188556052  0.395091813  0.594842438
     0.397044778  0.397616711  0.394204827
     0.603817698  0.199766074  0.398884779
     0.799381125  0.597949780  0.397856471
     0.798281330  0.798931893  0.200756771
     0.208920211  0.606003010  0.808555220
     0.803782019  0.802441829  0.799314041

  ion indices of the primitive-cell ions
   primitive index   ion index
                 1           1
                 2           2
                 3           3
                 4           4
                 5           5
                 6           6
                 7           7
                 8           8
                 9           9
                10          10
                11          11
                12          12
                13          13
                14          14
                15          15
                16          16
                17          17
                18          18
                19          19
                20          20
                21          21
                22          22
                23          23
                24          24
                25          25
                26          26
                27          27
                28          28
                29          29
                30          30
                31          31
                32          32
                33          33
                34          34
                35          35
                36          36
                37          37
                38          38
                39          39
                40          40
                41          41
                42          42
                43          43
                44          44
                45          45
                46          46
                47          47
                48          48
                49          49
                50          50
                51          51
                52          52
                53          53
                54          54
                55          55
                56          56
                57          57
                58          58
                59          59
                60          60
                61          61
                62          62
                63          63
                64          64
                65          65
                66          66
                67          67
                68          68
                69          69
                70          70
                71          71
                72          72
                73          73
                74          74
                75          75
                76          76
                77          77
                78          78
                79          79
                80          80
                81          81
                82          82
                83          83
                84          84
                85          85
                86          86
                87          87
                88          88
                89          89
                90          90
                91          91
                92          92
                93          93
                94          94
                95          95
                96          96
                97          97
                98          98
                99          99
               100         100
               101         101
               102         102
               103         103
               104         104
               105         105
               106         106
               107         107
               108         108
               109         109
               110         110
               111         111
               112         112
               113         113
               114         114
               115         115
               116         116
               117         117
               118         118
               119         119
               120         120
               121         121
               122         122
               123         123
               124         124

----------------------------------------------------------------------------------------

 
 
 KPOINTS: KPOINTS generated by db_to_vasp         

Automatic generation of k-mesh.
 Grid dimensions read from file:
 generate k-points for:    4    4    4

 Generating k-lattice:

  Cartesian coordinates                     Fractional coordinates (reciprocal lattice)
     0.000000732  0.016582430  0.016572410     0.250000000 -0.000000000 -0.000000000
     0.016567555  0.000020120  0.016553014    -0.000000000  0.250000000 -0.000000000
     0.016578251  0.016573730  0.000009422     0.000000000 -0.000000000  0.250000000

  Length of vectors
     0.023444013  0.023419790  0.023441992

  Shift w.r.t. Gamma in fractional coordinates (k-lattice)
     0.000000000  0.000000000  0.000000000

 
 Subroutine IBZKPT returns following result:
 ===========================================
 
 Found     36 irreducible k-points:
 
 Following reciprocal coordinates:
            Coordinates               Weight
  0.000000  0.000000  0.000000      1.000000
  0.250000  0.000000  0.000000      2.000000
  0.500000  0.000000  0.000000      1.000000
  0.000000  0.250000  0.000000      2.000000
  0.250000  0.250000  0.000000      2.000000
  0.500000  0.250000  0.000000      2.000000
 -0.250000  0.250000  0.000000      2.000000
  0.000000  0.500000  0.000000      1.000000
  0.250000  0.500000  0.000000      2.000000
  0.500000  0.500000  0.000000      1.000000
  0.000000  0.000000  0.250000      2.000000
  0.250000  0.000000  0.250000      2.000000
  0.500000  0.000000  0.250000      2.000000
 -0.250000  0.000000  0.250000      2.000000
  0.000000  0.250000  0.250000      2.000000
  0.250000  0.250000  0.250000      2.000000
  0.500000  0.250000  0.250000      2.000000
 -0.250000  0.250000  0.250000      2.000000
  0.000000  0.500000  0.250000      2.000000
  0.250000  0.500000  0.250000      2.000000
  0.500000  0.500000  0.250000      2.000000
 -0.250000  0.500000  0.250000      2.000000
  0.000000 -0.250000  0.250000      2.000000
  0.250000 -0.250000  0.250000      2.000000
  0.500000 -0.250000  0.250000      2.000000
 -0.250000 -0.250000  0.250000      2.000000
  0.000000  0.000000  0.500000      1.000000
  0.250000  0.000000  0.500000      2.000000
  0.500000  0.000000  0.500000      1.000000
  0.000000  0.250000  0.500000      2.000000
  0.250000  0.250000  0.500000      2.000000
  0.500000  0.250000  0.500000      2.000000
 -0.250000  0.250000  0.500000      2.000000
  0.000000  0.500000  0.500000      1.000000
  0.250000  0.500000  0.500000      2.000000
  0.500000  0.500000  0.500000      1.000000
 
 Following cartesian coordinates:
            Coordinates               Weight
  0.000000  0.000000  0.000000      1.000000
  0.000001  0.016582  0.016572      2.000000
  0.000001  0.033165  0.033145      1.000000
  0.016568  0.000020  0.016553      2.000000
  0.016568  0.016603  0.033125      2.000000
  0.016569  0.033185  0.049698      2.000000
  0.016567 -0.016562 -0.000019      2.000000
  0.033135  0.000040  0.033106      1.000000
  0.033136  0.016623  0.049678      2.000000
  0.033137  0.033205  0.066251      1.000000
  0.016578  0.016574  0.000009      2.000000
  0.016579  0.033156  0.016582      2.000000
  0.016580  0.049739  0.033154      2.000000
  0.016578 -0.000009 -0.016563      2.000000
  0.033146  0.016594  0.016562      2.000000
  0.033147  0.033176  0.033135      2.000000
  0.033147  0.049759  0.049707      2.000000
  0.033145  0.000011 -0.000010      2.000000
  0.049713  0.016614  0.033115      2.000000
  0.049714  0.033196  0.049688      2.000000
  0.049715  0.049779  0.066260      2.000000
  0.049713  0.000032  0.016543      2.000000
  0.000011  0.016554 -0.016544      2.000000
  0.000011  0.033136  0.000029      2.000000
  0.000012  0.049718  0.016601      2.000000
  0.000010 -0.000029 -0.033116      2.000000
  0.033157  0.033147  0.000019      1.000000
  0.033157  0.049730  0.016591      2.000000
  0.033158  0.066312  0.033164      1.000000
  0.049724  0.033168  0.016572      2.000000
  0.049725  0.049750  0.033144      2.000000
  0.049726  0.066332  0.049717      2.000000
  0.049723  0.016585 -0.000001      2.000000
  0.066292  0.033188  0.033125      1.000000
  0.066292  0.049770  0.049697      2.000000
  0.066293  0.066353  0.066270      1.000000
 


--------------------------------------------------------------------------------------------------------




 Dimension of arrays:
   k-points           NKPTS =     36   k-points in BZ     NKDIM =     36   number of bands    NBANDS=    832
   number of dos      NEDOS =    301   number of ions     NIONS =    124
   non local maximal  LDIM  =      6   non local SUM 2l+1 LMDIM =     18
   total plane-waves  NPLWV = 941192
   max r-space proj   IRMAX =      1   max aug-charges    IRDMAX=  31460
   dimension x,y,z NGX =    98 NGY =   98 NGZ =   98
   dimension x,y,z NGXF=   196 NGYF=  196 NGZF=  196
   support grid    NGXF=   196 NGYF=  196 NGZF=  196
   ions per type =               6   5 106   5   2
   NGX,Y,Z   is equivalent  to a cutoff of  12.47, 12.45, 12.46 a.u.
   NGXF,Y,Z  is equivalent  to a cutoff of  24.95, 24.91, 24.93 a.u.

 SYSTEM =  unknown system                          
 POSCAR =  Cr Ti V  W  Zr                          

 Startparameter for this run:
   NWRITE =      2    write-flag & timer
   PREC   = accura    normal or accurate (medium, high low for compatibility)
   ISTART =      0    job   : 0-new  1-cont  2-samecut
   ICHARG =      2    charge: 1-file 2-atom 10-const
   ISPIN  =      1    spin polarized calculation?
   LNONCOLLINEAR =      F non collinear calculations
   LSORBIT =      F    spin-orbit coupling
   INIWAV =      1    electr: 0-lowe 1-rand  2-diag
   LASPH  =      F    aspherical Exc in radial PAW
 Electronic Relaxation 1
   ENCUT  =  520.0 eV  38.22 Ry    6.18 a.u.  24.29 24.32 24.30*2*pi/ulx,y,z
   ENINI  =  520.0     initial cutoff
   ENAUG  =  598.5 eV  augmentation charge cutoff
   NELM   =    100;   NELMIN=  2; NELMDL= -5     # of ELM steps 
   EDIFF  = 0.1E-05   stopping-criterion for ELM
   LREAL  =      F    real-space projection
   NLSPLINE    = F    spline interpolate recip. space projectors
   LCOMPAT=      F    compatible to vasp.4.4
   GGA_COMPAT  = T    GGA compatible to vasp.4.4-vasp.4.6
   LMAXPAW     = -100 max onsite density
   LMAXMIX     =    2 max onsite mixed and CHGCAR
   VOSKOWN=      0    Vosko Wilk Nusair interpolation
   ROPT   =    0.00000   0.00000   0.00000   0.00000
   ROPT   =    0.00000
 Ionic relaxation
   EDIFFG = -.1E-01   stopping-criterion for IOM
   NSW    =     -1    number of steps for IOM
   NBLOCK =      1;   KBLOCK =      1    inner block; outer block 
   IBRION =      2    ionic relax: 0-MD 1-quasi-New 2-CG
   NFREE  =      1    steps in history (QN), initial steepest desc. (CG)
   ISIF   =      2    stress and relaxation
   IWAVPR =     11    prediction:  0-non 1-charg 2-wave 3-comb
   ISYM   =      2    0-nonsym 1-usesym 2-fastsym
   LCORR  =      T    Harris-Foulkes like correction to forces

   POTIM  = 0.2000    time-step for ionic-motion
   TEIN   =    0.0    initial temperature
   TEBEG  =    0.0;   TEEND  =   0.0 temperature during run
   SMASS  =  -3.00    Nose mass-parameter (am)
   estimated Nose-frequenzy (Omega)   =  0.10E-29 period in steps = 0.31E+47 mass=  -0.390E-26a.u.
   SCALEE = 1.0000    scale energy and forces
   NPACO  =    256;   APACO  = 10.0  distance and # of slots for P.C.
   PSTRESS=    0.0 pullay stress

  Mass of Ions in am
   POMASS =  52.00 47.88 50.94183.85 91.22
  Ionic Valenz
   ZVAL   =  12.00 10.00 11.00 14.00 12.00
  Atomic Wigner-Seitz radii
   RWIGS  =  -1.00 -1.00 -1.00 -1.00 -1.00
  virtual crystal weights 
   VCA    =   1.00  1.00  1.00  1.00  1.00
   NELECT =    1382.0000    total number of electrons
   NUPDOWN=      -1.0000    fix difference up-down

 DOS related values:
   EMIN   =  10.00;   EMAX   =-10.00  energy-range for DOS
   EFERMI =   0.00;   METHOD = LEGACY      
   ISMEAR =     1;   SIGMA  =   0.20  broadening in eV -4-tet -1-fermi 0-gaus

 Electronic relaxation 2 (details)
   IALGO  =     38    algorithm
   LDIAG  =      T    sub-space diagonalisation (order eigenvalues)
   LSUBROT=      F    optimize rotation matrix (better conditioning)
   TURBO    =      0    0=normal 1=particle mesh
   IRESTART =      0    0=no restart 2=restart with 2 vectors
   NREBOOT  =      0    no. of reboots
   NMIN     =      0    reboot dimension
   EREF     =   0.00    reference energy to select bands
   IMIX   =      4    mixing-type and parameters
     AMIX     =   0.40;   BMIX     =  1.00
     AMIX_MAG =   1.60;   BMIX_MAG =  1.00
     AMIN     =   0.10
     WC   =   100.;   INIMIX=   1;  MIXPRE=   1;  MAXMIX= -45

 Intra band minimization:
   WEIMIN = 0.0010     energy-eigenvalue tresh-hold
   EBREAK =  0.30E-09  absolut break condition
   DEPER  =   0.30     relativ break condition  

   TIME   =   0.40     timestep for ELM

  volume/ion in A,a.u.               =      13.86        93.52
  Fermi-wavevector in a.u.,A,eV,Ry     =   1.522427  2.876970 31.535373  2.317785
  Thomas-Fermi vector in A             =   2.631008
 
 Write flags
   LWAVE        =      F    write WAVECAR
   LDOWNSAMPLE  =      F    k-point downsampling of WAVECAR
   LCHARG       =      T    write CHGCAR
   LVTOT        =      F    write LOCPOT, total local potential
   LVHAR        =      F    write LOCPOT, Hartree potential only
   LELF         =      F    write electronic localiz. function (ELF)
   LORBIT       =     11    0 simple, 1 ext, 2 COOP (PROOUT), +10 PAW based schemes


 Dipole corrections
   LMONO  =      F    monopole corrections only (constant potential shift)
   LDIPOL =      F    correct potential (dipole corrections)
   IDIPOL =      0    1-x, 2-y, 3-z, 4-all directions 
   EPSILON=  1.0000000 bulk dielectric constant

 Exchange correlation treatment:
   GGA     =    PE    GGA type
   LEXCH   =     8    internal setting for exchange type
   LIBXC   =     F    Libxc                    
   VOSKOWN =     0    Vosko Wilk Nusair interpolation
   LHFCALC =     F    Hartree Fock is set to
   LHFONE  =     F    Hartree Fock one center treatment
   AEXX    =    0.0000 exact exchange contribution

 Linear response parameters
   LEPSILON=     F    determine dielectric tensor
   LRPA    =     F    only Hartree local field effects (RPA)
   LNABLA  =     F    use nabla operator in PAW spheres
   LVEL    =     F    velocity operator in full k-point grid
   CSHIFT  =0.1000    complex shift for real part using Kramers Kronig
   OMEGAMAX=  -1.0    maximum frequency
   DEG_THRESHOLD= 0.2000000E-02 threshold for treating states as degnerate
   RTIME   =   -0.100 relaxation time in fs
  (WPLASMAI=    0.000 imaginary part of plasma frequency in eV, 0.658/RTIME)
   DFIELD  = 0.0000000 0.0000000 0.0000000 field for delta impulse in time
 
  Optional k-point grid parameters
   LKPOINTS_OPT  =     F    use optional k-point grid
   KPOINTS_OPT_MODE=     1    mode for optional k-point grid
 
 Orbital magnetization related:
   ORBITALMAG=     F  switch on orbital magnetization
   LCHIMAG   =     F  perturbation theory with respect to B field
   DQ        =  0.001000  dq finite difference perturbation B field
   LLRAUG    =     F  two centre corrections for induced B field
   LBONE     =     F  B-component reconstruction in AE one-centre
   LVGVCALC  =     T  calculate vGv susceptibility
   LVGVAPPL  =     F  apply vGv susceptibility instead of pGv for G=0

 Random number generation:
   RANDOM_GENERATOR = DEFAULT
   PCG_SEED         = not used


--------------------------------------------------------------------------------------------------------


 conjugate gradient relaxation of ions
 charge density and potential will be updated during run
 non-spin polarized calculation
 Variant of blocked Davidson
 Davidson routine will perform the subspace rotation
 perform sub-space diagonalisation
    after iterative eigenvector-optimisation
 modified Broyden-mixing scheme, WC =      100.0
 initial mixing is a Kerker type mixing with AMIX =  0.4000 and BMIX =      1.0000
 Hartree-type preconditioning will be used
 using additional bands           141
 reciprocal scheme for non local part
 use partial core corrections
 calculate Harris-corrections to forces 
   (improved forces if not selfconsistent)
 use gradient corrections 
 use of overlap-Matrix (Vanderbilt PP)
 Methfessel and Paxton  Order N= 1 SIGMA  =   0.20


--------------------------------------------------------------------------------------------------------


  energy-cutoff  :      520.00
  volume of cell :     1718.39
      direct lattice vectors                 reciprocal lattice vectors
    -7.542928046  7.540699198  7.540388523     0.000002930  0.066329719  0.066289639
     7.547476001 -7.553831611  7.558065225     0.066270222  0.000080482  0.066212056
     7.537725071  7.548625092 -7.553522243     0.066313004  0.066294918  0.000037688

  length of vectors
    13.061981740 13.082397179 13.071141431     0.093776052  0.093679160  0.093767969


 
 k-points in units of 2pi/SCALE and weight: KPOINTS generated by db_to_vasp         
   0.00000000  0.00000000  0.00000000       0.016
   0.00000073  0.01658243  0.01657241       0.031
   0.00000146  0.03316486  0.03314482       0.016
   0.01656756  0.00002012  0.01655301       0.031
   0.01656829  0.01660255  0.03312542       0.031
   0.01656902  0.03318498  0.04969783       0.031
   0.01656682 -0.01656231 -0.00001940       0.031
   0.03313511  0.00004024  0.03310603       0.016
   0.03313584  0.01662267  0.04967844       0.031
   0.03313658  0.03320510  0.06625085       0.016
   0.01657825  0.01657373  0.00000942       0.031
   0.01657898  0.03315616  0.01658183       0.031
   0.01657972  0.04973859  0.03315424       0.031
   0.01657752 -0.00000870 -0.01656299       0.031
   0.03314581  0.01659385  0.01656244       0.031
   0.03314654  0.03317628  0.03313485       0.031
   0.03314727  0.04975871  0.04970726       0.031
   0.03314507  0.00001142 -0.00000997       0.031
   0.04971336  0.01661397  0.03311545       0.031
   0.04971409  0.03319640  0.04968786       0.031
   0.04971483  0.04977883  0.06626027       0.031
   0.04971263  0.00003154  0.01654304       0.031
   0.00001070  0.01655361 -0.01654359       0.031
   0.00001143  0.03313604  0.00002882       0.031
   0.00001216  0.04971847  0.01660123       0.031
   0.00000996 -0.00002882 -0.03311600       0.031
   0.03315650  0.03314746  0.00001884       0.016
   0.03315723  0.04972989  0.01659125       0.031
   0.03315797  0.06631232  0.03316366       0.016
   0.04972406  0.03316758  0.01657186       0.031
   0.04972479  0.04975001  0.03314427       0.031
   0.04972552  0.06633244  0.04971668       0.031
   0.04972332  0.01658515 -0.00000055       0.031
   0.06629161  0.03318770  0.03312487       0.016
   0.06629235  0.04977013  0.04969728       0.031
   0.06629308  0.06635256  0.06626969       0.016
 
 k-points in reciprocal lattice and weights: KPOINTS generated by db_to_vasp         
   0.00000000  0.00000000  0.00000000       0.016
   0.25000000  0.00000000  0.00000000       0.031
   0.50000000  0.00000000  0.00000000       0.016
   0.00000000  0.25000000  0.00000000       0.031
   0.25000000  0.25000000  0.00000000       0.031
   0.50000000  0.25000000  0.00000000       0.031
  -0.25000000  0.25000000  0.00000000       0.031
   0.00000000  0.50000000  0.00000000       0.016
   0.25000000  0.50000000  0.00000000       0.031
   0.50000000  0.50000000  0.00000000       0.016
   0.00000000  0.00000000  0.25000000       0.031
   0.25000000  0.00000000  0.25000000       0.031
   0.50000000  0.00000000  0.25000000       0.031
  -0.25000000  0.00000000  0.25000000       0.031
   0.00000000  0.25000000  0.25000000       0.031
   0.25000000  0.25000000  0.25000000       0.031
   0.50000000  0.25000000  0.25000000       0.031
  -0.25000000  0.25000000  0.25000000       0.031
   0.00000000  0.50000000  0.25000000       0.031
   0.25000000  0.50000000  0.25000000       0.031
   0.50000000  0.50000000  0.25000000       0.031
  -0.25000000  0.50000000  0.25000000       0.031
   0.00000000 -0.25000000  0.25000000       0.031
   0.25000000 -0.25000000  0.25000000       0.031
   0.50000000 -0.25000000  0.25000000       0.031
  -0.25000000 -0.25000000  0.25000000       0.031
   0.00000000  0.00000000  0.50000000       0.016
   0.25000000  0.00000000  0.50000000       0.031
   0.50000000  0.00000000  0.50000000       0.016
   0.00000000  0.25000000  0.50000000       0.031
   0.25000000  0.25000000  0.50000000       0.031
   0.50000000  0.25000000  0.50000000       0.031
  -0.25000000  0.25000000  0.50000000       0.031
   0.00000000  0.50000000  0.50000000       0.016
   0.25000000  0.50000000  0.50000000       0.031
   0.50000000  0.50000000  0.50000000       0.016
 
 position of ions in fractional coordinates (direct lattice) 
   0.00235196  0.40369342  0.00390492
   0.40161798  0.00506879  0.79994944
   0.40197435  0.19764462  0.80192439
   0.39819090  0.60461111  0.59863785
   0.59773208  0.39571059  0.39720523
   0.80047639  0.00145673  0.19825096
   0.99153679  0.20417319  0.20374296
   0.20144291  0.80525614  0.00558365
   0.38854544  0.39199030  0.59370472
   0.80204435  0.20398125  0.80143268
   0.78869663  0.58551624  0.79677782
   0.00885057  0.01468074  0.01190765
   0.99066245  0.99306177  0.19431536
   0.99746410  0.99988203  0.40362898
   0.00216520  0.00049834  0.60151050
   0.00339981  0.00414783  0.80055837
   0.99854556  0.20537207  0.99704042
   0.13955648  0.19456673  0.39762219
   0.00118413  0.19639535  0.59409471
   0.00313904  0.19830336  0.79834269
   0.99961979  0.40518063  0.19586402
   0.00018907  0.39773534  0.39675714
   0.99572803  0.40025315  0.59958725
   0.99977341  0.39633890  0.80423344
   0.99944311  0.59665289  0.00105524
   0.99752194  0.60027744  0.19955446
   0.00180296  0.60024270  0.39856485
   0.00101604  0.59962147  0.59657990
   0.98815594  0.59182532  0.79269828
   0.00237839  0.80425315  0.01095804
   0.00076439  0.79937382  0.20460961
   0.00437965  0.80072242  0.40224499
   0.00240879  0.80155036  0.60048187
   0.01422133  0.80128801  0.80159709
   0.20320071  0.00894962  0.00524446
   0.19775657  0.00171927  0.20246128
   0.19596918  0.00432850  0.40365789
   0.20260350  0.00135251  0.60174463
   0.20461215  0.00242414  0.80130524
   0.20043260  0.20121626  0.00072619
   0.19566472  0.19988760  0.20278904
   0.20105120  0.19658621  0.60710294
   0.20405959  0.19832232  0.80253840
   0.19900490  0.39923955  0.00215963
   0.19680327  0.39890967  0.19729185
   0.20497638  0.41366404  0.40188554
   0.20145843  0.39057969  0.80368620
   0.20450075  0.59847703  0.01582884
   0.19817965  0.59972721  0.19882498
   0.19930288  0.60446259  0.39681075
   0.20468564  0.60500882  0.59288571
   0.20020368  0.80438639  0.20721040
   0.20118689  0.80389356  0.40237616
   0.20410359  0.80562608  0.60135189
   0.20109541  0.81052097  0.79616868
   0.40217091  0.00432475  0.00121658
   0.40509355  0.00665288  0.20615359
   0.39943138  0.00256933  0.40239995
   0.40003880  0.00043341  0.60151660
   0.40208812  0.20111428  0.00010899
   0.40334339  0.20132584  0.20202756
   0.39108551  0.19427818  0.39968557
   0.39996325  0.19518528  0.60793379
   0.40135076  0.39960811  0.00364398
   0.39809145  0.39818189  0.19762553
   0.39973457  0.39607062  0.80431503
   0.40442269  0.59970399  0.00672481
   0.40094113  0.60044873  0.20223976
   0.40031627  0.60415559  0.40074252
   0.40887058  0.60069407  0.79765675
   0.41997545  0.81696655  0.01743353
   0.40281811  0.80409215  0.20409498
   0.40010005  0.80368235  0.39949223
   0.40077250  0.80154196  0.59804111
   0.40214737  0.81049859  0.80069251
   0.59754764  0.99930456  0.99630347
   0.60870210  0.00154031  0.20139507
   0.60357645  0.99956094  0.40046055
   0.59650147  0.99803258  0.59551930
   0.59491617  0.00130406  0.79810121
   0.59600984  0.19713292  0.99675343
[...]
   -.194E+03 -.134E+03 0.191E+02   0.195E+03 0.135E+03 -.194E+02   -.503E+00 -.269E+00 0.314E+00   -.436E-03 0.509E-02 -.406E-02
   0.156E+03 0.654E+02 -.107E+03   -.157E+03 -.652E+02 0.106E+03   0.843E+00 -.279E+00 0.604E+00   -.222E-02 0.145E-02 0.602E-03
   -.492E+02 -.566E+01 -.145E+02   0.493E+02 0.558E+01 0.144E+02   -.651E-01 0.843E-01 0.126E+00   0.268E-03 -.137E-02 0.997E-03
   -.902E+02 -.119E+03 0.759E+02   0.896E+02 0.118E+03 -.754E+02   0.630E+00 0.691E+00 -.530E+00   0.122E-03 0.196E-02 -.164E-02
   0.523E+02 0.689E+02 0.888E+02   -.519E+02 -.686E+02 -.887E+02   -.389E+00 -.377E+00 -.130E+00   -.648E-03 -.310E-02 0.165E-02
   -.416E+02 -.246E+02 0.178E+03   0.411E+02 0.246E+02 -.177E+03   0.502E+00 -.934E-02 -.116E+01   -.164E-02 0.318E-02 -.294E-02
   0.228E+02 -.843E+02 0.165E+02   -.226E+02 0.842E+02 -.165E+02   -.173E+00 0.151E+00 0.663E-01   0.104E-02 0.183E-02 -.286E-02
   -.478E+02 -.592E+02 -.104E+02   0.478E+02 0.592E+02 0.107E+02   -.195E-01 0.359E-01 -.269E+00   -.617E-04 0.314E-02 -.151E-02
   0.127E+02 0.733E+01 -.570E+02   -.127E+02 -.732E+01 0.570E+02   0.979E-02 -.631E-02 -.294E-01   -.632E-03 -.218E-02 0.238E-02
   -.716E+02 0.147E+02 0.329E+02   0.715E+02 -.150E+02 -.331E+02   0.581E-01 0.288E+00 0.122E+00   0.386E-02 -.144E-02 0.290E-03
   0.377E+02 -.872E+02 0.230E+02   -.372E+02 0.868E+02 -.230E+02   -.454E+00 0.398E+00 0.943E-02   -.227E-02 0.346E-02 -.179E-02
 -----------------------------------------------------------------------------------------------
   -.665E+00 -.404E+00 0.262E+00   -.426E-12 0.210E-11 -.675E-11   0.659E+00 0.402E+00 -.264E+00   0.245E-02 0.170E-02 -.230E-03
 
 
 POSITION                                       TOTAL-FORCE (eV/Angst)
 -----------------------------------------------------------------------------------
      3.05856     -3.00222      3.03938         0.002460      0.005752     -0.008905
      3.03868      9.02871     -2.97577         0.001115     -0.008387      0.003104
      4.50434      7.59162     -1.53250        -0.006464     -0.006387      0.007774
      6.07213      2.95440      3.05038         0.006568      0.001594     -0.001528
      1.47199      4.51654      4.49764         0.003300     -0.004196      0.000923
     -4.53258      7.52167      4.54942         0.027692     -0.021721     -0.011732
     -4.40234      7.47257      7.48075         0.074655      0.069646     -0.090555
      4.60027     -4.52160      7.56296         0.001730     -0.003397      0.003368
      4.50295      4.45053      1.40791         0.069780      0.025289      0.050094
      1.53076     10.55685      1.53579         0.007512      0.001819     -0.004976
      4.47598      7.53901      4.35397         0.000213      0.002288     -0.011990
      0.13380      0.04573      0.08775         0.004034     -0.002707     -0.011893
      1.48731      1.43568     13.50784        -0.008323     -0.017136     -0.015675
      3.06523      3.01548     12.02962         0.046835     -0.065138      0.039371
      4.52145      4.55314     -4.52343        -0.011314     -0.024246     -0.003552
      6.04005      6.03742     -5.99005         0.002009     -0.008053     -0.000975
      1.53350     13.50467      1.55047         0.018991      0.019733     -0.024200
      3.41299      2.58413     -0.48059        -0.390505      0.424528      0.434171
      5.95148      3.00999     -2.99421        -0.018110     -0.029810      0.018422
      7.49070      4.55211     -4.50784         0.001142     -0.005186     -0.005386
     -3.00560      5.95567      9.12044        -0.007723      0.004826     -0.025768
      5.99112     -0.00803      0.01062         0.009157      0.004722     -0.019863
      0.02972      9.01110      6.00432         0.028439     -0.009565     -0.006638
      1.51223     10.61597      4.45944         0.002198      0.000909     -0.007737
     -3.02755      3.03745     12.03776         0.000072     -0.000767     -0.002129
     -1.48947      4.49398     10.55130         0.001534     -0.001083     -0.003052
      7.52099     -1.51192      1.53970         0.002506     -0.003782     -0.002960
      9.01482     -0.01842      0.03336         0.003628     -0.003156      0.003522
      2.98834      8.96462      5.93647         0.011670      0.002825     -0.000852
      6.13474     -5.97454      6.01376        -0.004780      0.010501      0.010170
      7.56978     -4.48805      4.50196         0.006324     -0.003922     -0.000263
      9.04241     -2.97910      3.04657         0.004014     -0.003139      0.000197
     10.55778     -1.50380      1.54058         0.000030     -0.001863      0.005050
     11.98265      0.10540      0.10854         0.002546     -0.001577      0.004811
     -1.42565      1.50426      1.56024        -0.000640     -0.004212     -0.004229
      0.04741      3.00654     -0.02514         0.045804      0.009865      0.011555
      1.59715      4.49211     -1.53864        -0.043803      0.025891     -0.067716
      3.01777      6.05990     -3.00736        -0.000786     -0.010015     -0.007319
      4.51494      7.57336     -4.49150         0.001561     -0.009057      0.005893
      0.01230     -0.00307      3.02666         0.002798     -0.008547     -0.006082
      1.56133      1.49631      1.45438        -0.009529     -0.058373      0.011381
      4.54339      4.61388     -1.58395         0.014192     -0.004403     -0.013119
      6.00694      6.09872     -3.02437         0.001418     -0.017660     -0.004044
      1.52845     -1.49885      4.50174         0.000176     -0.005318     -0.007676
      3.01342     -0.03998      3.00871        -0.001039     -0.007258     -0.008459
      4.60530      1.45460      1.63645         0.007493     -0.011770      0.012857
      7.48627      4.63549     -1.59956         0.000200     -0.016555      0.001634
      3.09377     -2.85923      5.94578         0.004215     -0.003751     -0.006617
      4.53026     -1.53497      4.52530        -0.002047      0.001906     -0.009510
      6.04989     -0.06775      3.07407         0.001967     -0.000784     -0.009625
      7.49137      1.44881      1.63773         0.003502      0.008326     -0.009698
      6.12286     -3.00237      6.02405        -0.009257     -0.003571     -0.001526
      7.58283     -1.51800      4.55355        -0.006780      0.006381     -0.010109
      9.07373     -0.00710      3.08567        -0.000163      0.001779     -0.001905
     10.60184      1.40384      1.62843         0.003583     -0.002672      0.002422
     -2.99174      3.00916      3.05602         0.002683     -0.006949      0.001387
     -1.45145      4.56061      1.54766        -0.002151      0.000749      0.000745
      0.03969      6.03015     -0.00825        -0.004925     -0.001910     -0.003318
      1.51987      7.55392     -1.52385         0.006432     -0.007883      0.003847
     -1.51420      1.51366      4.55111         0.003842     -0.004781     -0.001264
     -0.00006      3.04574      3.03698        -0.005178     -0.000541      0.004770
      1.52910      4.49859      1.39827        -0.012316      0.003858      0.028375
      3.03870      6.13067     -0.10094        -0.016143     -0.077812      0.004989
      0.01614      0.03540      6.01908        -0.003804     -0.004774     -0.003603
      1.49214      1.48589      4.51848         0.003974      0.000495     -0.000276
      6.03687      6.09390     -0.06773         0.012385     -0.004408     -0.004047
      1.52641     -1.42967      7.53131         0.002080      0.000977     -0.005465
      3.03203      0.01432      6.03386        -0.002505     -0.002205     -0.004863
      4.56098      1.48003      4.55777        -0.010355      0.009155      0.001980
      7.46216      4.56684      1.59801         0.004841     -0.004492     -0.008325
      3.12960     -2.87272      9.20978        -0.001558     -0.006453     -0.001540
      4.56885     -1.49581      7.57315        -0.001495     -0.000256     -0.006121
      6.05911     -0.03823      6.07362        -0.001618      0.003975     -0.006452
      7.53449      1.48178      4.56277        -0.004975      0.003204     -0.003881
      9.11925      2.95423      3.11010         0.000878     -0.004446     -0.000501
     10.54483      4.47807      4.53295        -0.006434     -0.014786     -0.002824
     -3.06171      6.09866      3.08025        -0.002129     -0.009963     -0.009591
      6.00999      0.02380      9.08106         0.006807      0.001135     -0.011077
      7.52212      1.45442      7.54278         0.006692     -0.004318     -0.004709
      1.53830     10.50080     -1.53272         0.003947     -0.006451      0.003441
      4.50545     10.52934     -1.54491        -0.002920     -0.009049      0.002872
     -1.54584      4.52597      4.55309         0.003427     -0.002959     -0.003606
      1.47798      7.54695      1.48009         0.008876     -0.009662     -0.010020
      3.06698      8.99159     -0.04450         0.004397     -0.021295      0.000194
      5.99504      9.04410     -0.05919        -0.002029     -0.003363     -0.001643
     -0.01095      3.02259      5.98888        -0.000526     -0.001749     -0.001435
      2.88568      5.95709      2.95419        -0.002481     -0.006605      0.006389
      4.50896      7.52147      1.47065        -0.002208     -0.005253     -0.008867
     -0.00428      0.00532      8.98581         0.006143      0.005750      0.001707
      1.50837      1.48163      7.49429        -0.000182     -0.000242     -0.004363
      3.01674      2.99384      6.02160        -0.003421      0.001228     -0.008969
      4.50711      4.41737      4.43083        -0.001863     -0.005506      0.009711
      6.10203      5.99856      2.92936         0.023345      0.007080      0.010210
      1.52905     -1.52388     10.59225         0.010673     -0.004212     -0.001043
      3.03642     -0.00486      9.03224        -0.001661     -0.005817     -0.010521
      4.55072      1.49084      7.54025         0.004280      0.002693     -0.010868
      6.04731      2.95122      6.07280         0.003254      0.004753     -0.003271
      7.56846      4.37893      4.48083         0.004506     -0.001953      0.004570
      1.55365     -1.55694     13.53293         0.015628     -0.001645      0.013114
      4.49506      1.51529     10.53798         0.012327     -0.015230     -0.059013
     -1.50573     10.56061      1.53257         0.010413      0.005650     -0.008140
      0.05716     12.01252      0.02611         0.002345      0.007809      0.001045
     -4.50008      4.51774      7.50753        -0.000695      0.011906      0.003196
     -3.03850      5.89625      6.00207         0.014701     -0.039805     -0.010465
     -1.70254      7.65791      4.70296        -0.022340      0.013329      0.009847
     -0.10352      9.07638      3.09029         0.005780      0.004361     -0.008898
      4.50077     10.56679      1.48990        -0.000526     -0.003038     -0.002861
     -1.54263      4.50559      7.54422         0.005455     -0.006092      0.003152
     -0.06046      6.04928      6.05652         0.004383     -0.002982     -0.000391
      1.44479      7.54826      4.52546        -0.001124      0.000884     -0.004966
      2.98066      9.04642      2.98760         0.001494     -0.002332     -0.005275
     -1.50470      1.56115     10.46296         0.009545      0.003895      0.005521
     -0.03584      3.01958      9.00256         0.000706     -0.002096      0.002534
      2.91428      5.97589      5.99569         0.001364     -0.000237     -0.001883
      0.05823      0.01344     12.00449         0.027093     -0.001002      0.004073
      3.02876      3.01701      9.05909        -0.000382      0.005256      0.003729
      4.49564      4.42698      7.63076         0.002068      0.004199     -0.007920
      6.04344      2.92763     -0.08524        -0.028906     -0.045669     -0.040612
      2.97753      2.96617      3.02145        -0.005619      0.001610     -0.031789
     -0.04014      6.05524      3.04988        -0.004254      0.003825     -0.000265
      1.48227      4.51435      7.54177         0.003325     -0.002492      0.001923
      1.52179      1.50004     10.54131         0.017438      0.002728     -0.004303
      9.09259      3.10124      0.04811        -0.011544      0.005938      0.004593
      6.01855      6.03329      6.08810         0.004936      0.006859     -0.007125
 -----------------------------------------------------------------------------------
    total drift:                               -0.004200      0.000466     -0.001539


--------------------------------------------------------------------------------------------------------



  FREE ENERGIE OF THE ION-ELECTRON SYSTEM (eV)
  ---------------------------------------------------
  free  energy   TOTEN  =     -1122.29855381 eV

  energy  without entropy=    -1122.27711336  energy(sigma->0) =    -1122.29140699
 


--------------------------------------------------------------------------------------------------------


    POTLOK:  cpu time      0.2498: real time      0.1369


--------------------------------------------------------------------------------------------------------




--------------------------------------------------------------------------------------------------------


     LOOP+:  cpu time   4016.6675: real time   4014.1080
    4ORBIT:  cpu time      0.0000: real time      0.0000



 total charge

# of ion       s       p       d       tot
------------------------------------------
    1        0.421   6.318   4.208  10.946
    2        0.421   6.330   4.187  10.938
    3        0.422   6.332   4.201  10.955
    4        0.412   6.309   4.220  10.941
    5        0.410   6.326   4.211  10.947
    6        0.408   6.302   4.171  10.880
    7        0.366   6.281   2.129   8.776
    8        0.357   6.284   2.105   8.745
    9        0.354   6.301   2.113   8.768
   10        0.366   6.303   2.156   8.826
   11        0.363   6.277   2.167   8.807
   12        0.354   6.217   3.082   9.653
   13        0.365   6.235   3.073   9.674
   14        0.360   6.234   3.062   9.656
   15        0.358   6.242   3.053   9.652
   16        0.350   6.228   3.035   9.613
   17        0.354   6.230   3.052   9.636
   18        0.331   6.190   3.018   9.539
   19        0.348   6.220   3.035   9.603
   20        0.358   6.235   3.061   9.654
   21        0.359   6.238   3.064   9.660
   22        0.346   6.222   3.010   9.577
   23        0.366   6.230   3.106   9.702
   24        0.349   6.226   3.031   9.607
   25        0.349   6.228   3.028   9.605
   26        0.358   6.240   3.063   9.661
   27        0.355   6.243   3.057   9.654
   28        0.347   6.229   3.039   9.615
   29        0.349   6.215   3.061   9.625
   30        0.346   6.217   3.032   9.595
   31        0.356   6.236   3.089   9.682
   32        0.350   6.241   3.047   9.638
   33        0.353   6.238   3.058   9.649
   34        0.351   6.211   3.071   9.633
   35        0.353   6.226   3.060   9.639
   36        0.353   6.224   3.070   9.647
   37        0.347   6.230   3.013   9.591
   38        0.360   6.243   3.069   9.671
   39        0.358   6.241   3.070   9.669
   40        0.355   6.238   3.052   9.645
   41        0.348   6.230   3.055   9.632
   42        0.369   6.249   3.081   9.698
   43        0.359   6.242   3.080   9.681
   44        0.357   6.237   3.069   9.663
   45        0.352   6.235   3.058   9.646
   46        0.366   6.252   3.067   9.686
   47        0.354   6.229   3.074   9.656
   48        0.357   6.219   3.104   9.680
   49        0.359   6.238   3.086   9.682
   50        0.359   6.236   3.093   9.688
   51        0.354   6.234   3.058   9.647
   52        0.353   6.232   3.052   9.637
   53        0.357   6.241   3.065   9.663
   54        0.358   6.242   3.057   9.657
   55        0.360   6.223   3.127   9.710
   56        0.352   6.234   3.040   9.626
   57        0.353   6.237   3.067   9.657
   58        0.352   6.234   3.056   9.643
   59        0.360   6.240   3.078   9.678
   60        0.357   6.243   3.057   9.657
   61        0.348   6.240   3.035   9.623
   62        0.344   6.226   3.046   9.616
   63        0.361   6.234   3.069   9.664
   64        0.359   6.240   3.073   9.672
   65        0.355   6.242   3.083   9.680
   66        0.352   6.234   3.054   9.640
   67        0.352   6.229   3.042   9.623
   68        0.358   6.241   3.050   9.649
   69        0.353   6.245   3.044   9.643
   70        0.351   6.225   3.087   9.663
   71        0.358   6.223   3.095   9.677
   72        0.354   6.229   3.064   9.647
   73        0.357   6.241   3.058   9.656
   74        0.358   6.244   3.054   9.656
   75        0.353   6.235   3.049   9.637
   76        0.363   6.240   3.092   9.694
   77        0.355   6.243   3.064   9.662
   78        0.355   6.237   3.073   9.664
   79        0.356   6.232   3.065   9.653
   80        0.356   6.240   3.046   9.642
   81        0.359   6.246   3.066   9.671
   82        0.357   6.241   3.098   9.696
   83        0.352   6.234   3.065   9.651
   84        0.359   6.242   3.061   9.661
   85        0.357   6.244   3.036   9.638
   86        0.354   6.245   3.053   9.652
   87        0.347   6.231   3.047   9.625
   88        0.354   6.232   3.049   9.635
   89        0.355   6.241   3.069   9.665
   90        0.349   6.242   3.051   9.642
   91        0.348   6.243   3.042   9.633
   92        0.348   6.228   3.056   9.633
   93        0.352   6.222   3.088   9.661
   94        0.351   6.236   3.051   9.638
   95        0.357   6.242   3.075   9.675
   96        0.356   6.241   3.051   9.649
   97        0.354   6.230   3.062   9.646
   98        0.355   6.232   3.055   9.641
   99        0.352   6.229   3.041   9.623
  100        0.363   6.234   3.075   9.672
  101        0.356   6.234   3.065   9.655
  102        0.352   6.219   3.075   9.646
  103        0.359   6.235   3.070   9.664
  104        0.374   6.237   3.121   9.732
  105        0.335   6.207   3.013   9.556
  106        0.349   6.235   3.035   9.620
  107        0.356   6.237   3.055   9.647
  108        0.354   6.239   3.057   9.650
  109        0.349   6.246   3.036   9.631
  110        0.356   6.232   3.106   9.694
  111        0.356   6.225   3.088   9.669
  112        0.351   6.230   3.053   9.635
  113        0.354   6.247   3.085   9.687
  114        0.345   6.231   3.017   9.593
  115        0.354   6.225   3.114   9.692
  116        0.356   6.248   3.091   9.695
  117        0.351   6.222   3.082   9.655
  118        2.445   6.244   3.420  12.109
  119        2.451   6.260   3.479  12.191
  120        2.442   6.272   3.414  12.128
  121        2.446   6.273   3.454  12.173
  122        2.446   6.274   3.445  12.166
  123        2.259   5.973   1.885  10.116
  124        2.262   5.967   1.906  10.134
--------------------------------------------------
tot         58.612 773.398 381.4571213.467
 

 total amount of memory used by VASP MPI-rank0  7396245. kBytes
=======================================================================

   base      :      30000. kBytes
   nonl-proj :    1292066. kBytes
   fftplans  :      67629. kBytes
   grid      :     189621. kBytes
   one-center:       1928. kBytes
   wavefun   :    5815001. kBytes
 
  
  
 General timing and accounting informations for this job:
 ========================================================
  
                  Total CPU time used (sec):     4142.578
                            User time (sec):     3437.407
                          System time (sec):      705.171
                         Elapsed time (sec):     4139.892
  
                   Maximum memory used (kb):     9703348.
                   Average memory used (kb):          N/A
  
                          Minor page faults:     15169419
                          Major page faults:           11
                 Voluntary context switches:       743573
