127
Lattice="12.05239363577153 3.552520251448903e-05 -0.00021928746231963074 3.551963359022388e-05 12.055582501008777 -3.698160418695492e-05 -0.00021928845706198425 -3.698237207466351e-05 12.052580388546156" Properties=species:S:1:pos:R:3:forces:R:3 energy=-1142.8962211280098 free_energy=-1142.8962211280098 stress="0.002497588583237064 0.00012257431074302774 0.00011163560550401735 0.00012257431074302774 0.006112907513167147 -0.00014364066155125548 0.00011163560550401735 -0.00014364066155125548 0.002221477243046693" pbc="T T T"
Cr       3.01241908       9.01609098       0.01951816       0.00022452      -0.00175937       0.00113889
Cr       9.02490065       2.98316270       3.02841632      -0.00082326      -0.00201739      -0.00057962
Ti       3.02129479       6.05520227       9.04108031       0.00051842       0.00220922      -0.00033333
Ti       9.03652992      -0.00272829       9.01310098       0.00023744      -0.00059013       0.00192109
V        0.04903899       0.00155793       0.02156684      -0.00456497      -0.00109282       0.00042277
V        1.51305116       1.52352563       1.52844938      -0.00053500       0.00136460       0.00011925
V        0.01456911       0.02164580       3.03433090       0.00144331       0.00146632       0.00197338
V        1.49810273       1.49564373       4.49957801      -0.00072531       0.00293352       0.00018998
V       -0.01816042       0.01357165       6.00874044      -0.00057307       0.00030743      -0.00067518
V        1.40864858       1.58783719       7.44886034       0.00138217       0.00394106       0.00044597
V       -0.00903066       0.02629363       9.00911906       0.00223630       0.00193091       0.00012356
V        1.45999582       1.61922710      10.62218319      -0.00000657       0.00161712      -0.00013712
V       -0.00268493       2.98926182       0.00240113       0.00043454       0.00088425      -0.00122832
V        1.52969698       4.55521915       1.51048833      -0.00087709      -0.00016895      -0.00217557
V        0.03124679       3.01295206       3.02509803      -0.00264684      -0.00009475      -0.00140118
V        1.51199356       4.54228791       4.50091249      -0.00116091       0.00263995      -0.00050783
V       -0.01388438       3.02526687       6.00993775       0.00041773       0.00162429      -0.00123459
V        1.46875016       4.51875293       7.49499228      -0.00044447       0.00309148       0.00021969
V       -0.01699135       3.05022484       9.04032817      -0.00108494       0.00049908       0.00148984
V        1.46610812       4.53678549      10.57080601       0.00048128      -0.00105563       0.00125826
V       -0.02289261       6.05806508      -0.02096452       0.00031489      -0.00164321       0.00062044
V        1.52889488       7.55616451       1.46713722       0.00019421      -0.00196137       0.00258855
V       -0.00301099       6.04616883       3.00013565       0.00088602      -0.00115310       0.00115017
V        1.51118339       7.55584394       4.48228240       0.00068026       0.00270064       0.00100606
V        0.01270131       6.02806798       5.99809722      -0.00154214       0.00086487      -0.00059066
V        1.50626084       7.57584258       7.49409117      -0.00078728       0.00485169       0.00091881
V       -0.00921734       6.01801136       9.05707822       0.00119306       0.00094765      -0.00178250
V        1.49574121       7.55258893      10.60688320      -0.00152064       0.00074582      -0.00013919
V        0.04984726       9.06596267       0.00732783       0.00629089      -0.00199032      -0.00013234
V        1.54844182      10.54161290       1.50357619       0.00145144       0.00025784       0.00211174
V        0.00790116       9.02663790       3.00704613      -0.00080237      -0.00274134       0.00030131
V        1.51955854      10.57180047       4.49923020      -0.00076248       0.00074331       0.00204292
V        0.00556543       9.05527788       5.98972116       0.00145220       0.00239879       0.00107343
V        1.47479983      10.49357930       7.42403087       0.00109382       0.00248039      -0.00015651
V        0.03083207       9.01811322       9.02655370       0.00008813      -0.00264202       0.00018820
V        1.52355327      10.45386335      10.66155432       0.00079300       0.00049625      -0.00004350
V        3.01281105       0.06304045       0.07050920      -0.00002449       0.00015706       0.00137778
V        4.51386036       1.52759491       1.53372529       0.00055376       0.00167652      -0.00012294
V        3.01039296       0.00703850       3.00500841      -0.00075651      -0.00047706       0.00044183
V        4.52405536       1.50147985       4.49206710       0.00039468       0.00140216       0.00002657
V        3.01217702      -0.00085839       5.95886307       0.00030667       0.00587994       0.00183974
V        4.61730733       1.58263620       7.45115794      -0.00062474       0.00386610       0.00071493
V        4.57125914       1.63135893      10.64212885       0.00024241       0.00183023       0.00032635
V        3.01541838       3.05565065       0.01881426      -0.00054322       0.00101451       0.00055442
V        4.52397022       4.54985821       1.51621997       0.00132787      -0.00190109      -0.00126522
V        3.01694882       3.02885102       3.01074236       0.00070869       0.00155164      -0.00040194
V        4.52106598       4.54770662       4.50865505       0.00039782       0.00252843      -0.00036388
V        3.01659934       3.04205572       6.01755632      -0.00003140       0.00476832      -0.00026584
V        4.57204840       4.51932915       7.49810133      -0.00041254       0.00334345       0.00020455
V        3.01760287       3.10905359       9.03800973       0.00018121       0.00378543       0.00050123
V        4.57502462       4.54181058      10.57877993       0.00040702      -0.00164447      -0.00036924
V        3.01839075       6.02718770       0.00485387      -0.00063681      -0.00041774       0.00111301
V        4.50252195       7.55189279       1.47401256      -0.00018860      -0.00121884       0.00322067
V        3.01859561       6.06219262       2.99837032      -0.00012165       0.00214233      -0.00186465
V        4.52173492       7.55347176       4.48454076      -0.00024812       0.00189190       0.00167313
V        3.02128315       6.01695766       5.99740139       0.00004422       0.00669410      -0.00023863
V        4.56412228       7.57627081       7.50436979       0.00093739       0.00357440      -0.00023537
V        4.54041013       7.54593613      10.61744284       0.00150343      -0.00007490      -0.00054382
V        4.46928767      10.54402395       1.50634164      -0.00146170       0.00044488       0.00247608
V        3.01181594       9.05102506       3.01434427      -0.00069497       0.00241358       0.00300337
V        4.49491223      10.56682682       4.51302209       0.00029182       0.00092761       0.00098687
V        3.01782250       9.07099685       5.99437171       0.00000867       0.00426902      -0.00151420
V        4.55254938      10.49144000       7.42879961      -0.00099102       0.00256862      -0.00103451
V        3.01551583       8.98261777       9.02332637      -0.00102362       0.00307169      -0.00028460
V        4.49873424      10.44110768      10.66078100      -0.00088047       0.00073019      -0.00011113
V        5.96837009       0.00818200       0.02876678       0.00561502      -0.00190717       0.00041906
V        7.53987267       1.49329632       1.58530688       0.00099409      -0.00364520      -0.00352992
V        6.00038711       0.02247755       3.04558801      -0.00123262       0.00146689       0.00227545
V        7.56476848       1.54892991       4.51667952       0.00056988      -0.00124451      -0.00073984
V        6.03858468       0.00956376       6.01739317       0.00033810       0.00041707      -0.00073333
V        7.52998378       1.57329054       7.50042793      -0.00062948       0.00038560       0.00013127
V        6.03216211       0.02770032       9.00980714      -0.00273201       0.00171039      -0.00222556
V        7.46743470       1.51855878      10.57253242       0.00158789      -0.00314980       0.00070985
V        6.04790621       3.00691098       0.03043931       0.00062586      -0.00006788       0.00041258
V        7.53103315       4.48453590       1.53649658      -0.00039860      -0.00252258      -0.00036487
V        6.00117253       3.03142755       3.01605853       0.00316118      -0.00057714      -0.00285476
V        7.55172013       4.49986714       4.49374200       0.00065352       0.00019171      -0.00181084
V        6.04003876       3.02865277       6.01468636      -0.00161080       0.00192109      -0.00100018
V        7.54344233       4.53731571       7.54828156       0.00086792      -0.00143148       0.00165806
V        6.04946206       3.05801177       9.04608102       0.00122187       0.00073784       0.00075167
V        7.54511493       4.51646377      10.55507793      -0.00045203      -0.00160156      -0.00046107
V        6.06673420       6.04377078       0.00827886      -0.00028189       0.00097959      -0.00012434
V        7.59777477       7.56147069       1.43759871       0.00220213      -0.00295991      -0.00178788
V        6.04575821       6.02770794       2.99009904      -0.00120068      -0.00056508       0.00107874
V        7.53294363       7.50379408       4.50085257      -0.00232600      -0.00116646       0.00042272
V        6.03062221       6.04278700       6.01576835       0.00199345       0.00208771      -0.00022375
V        7.51806788       7.49452582       7.55197116       0.00026617       0.00178003      -0.00089668
V        6.05617816       6.03120549       9.05857750      -0.00097332      -0.00005543       0.00015402
V        7.60276004       7.55626895      10.60923975       0.00391825       0.00027389       0.00236634
V        5.97398484       9.05559956       0.01461659      -0.00586762      -0.00229446      -0.00038153
V        7.31427418      10.48564311       1.73419589      -0.00266328      -0.00412319       0.00149184
V        6.01091109       9.02557166       3.01856362      -0.00063541      -0.00263446       0.00101922
V        7.53964603      10.56609310       4.55310099      -0.00222894      -0.00125810       0.00172956
V        6.02921718       9.03955539       6.01176754      -0.00293654       0.00136625       0.00136441
V        7.51959843      10.51691117       7.48242451       0.00065084      -0.00032555      -0.00194185
V        6.00560889       8.99567278       9.02510771       0.00149227      -0.00216004       0.00061436
V        7.26897930      10.45000071      10.35004670      -0.00163265      -0.00129795      -0.00304771
V       10.53665799       1.46328505       1.57618199      -0.00119284      -0.00173266      -0.00398834
V        9.03552004      -0.01727584       3.08391844       0.00029628      -0.00213768      -0.00413146
V       10.50397885       1.54859645       4.50578927      -0.00035556      -0.00070221      -0.00116408
V        9.03869986       0.03621301       6.03144165       0.00015817       0.00019291      -0.00241515
V       10.55090561       1.56361823       7.49785334       0.00089255      -0.00007810      -0.00014084
V       10.60732974       1.51243342      10.56981207      -0.00144858      -0.00323406       0.00108829
V        9.03136279       2.93586709      -0.00878104      -0.00094302      -0.00407959      -0.00083664
V       10.51900023       4.50090308       4.51944490      -0.00056298       0.00028742      -0.00173765
V        9.03636823       3.03479598       6.04896581      -0.00055095      -0.00123391      -0.00077757
V       10.53605627       4.50121834       7.54210179      -0.00061412       0.00034407       0.00165439
V        9.03895534       2.99679556       9.07100042      -0.00027331       0.00089104      -0.00107735
V       10.53548944       4.51495462      10.52677520       0.00167251      -0.00206704      -0.00060462
V        9.02503265       5.93020884       0.00123672      -0.00025856      -0.00888400       0.00030071
V       10.47149521       7.58277353       1.42450175      -0.00263364      -0.00090308      -0.00215070
V        9.01914283       6.05292039       2.98839566       0.00064335      -0.00335431       0.00037788
V       10.53457003       7.50490434       4.47234634       0.00186886      -0.00135602       0.00047643
V        9.02246836       6.00200789       5.99926432      -0.00125467      -0.00098967       0.00101232
V        9.02644912       6.02442945       9.08442644       0.00076215      -0.00058730       0.00081085
V       10.46801665       7.56678763      10.62527544      -0.00367864       0.00120880       0.00397135
V       10.75086961      10.48582839       1.72130340       0.00271917      -0.00468018       0.00111127
V        9.03491355       9.05082044       3.09123825       0.00076004      -0.00572166       0.00396269
V       10.53466057      10.56669788       4.54571016       0.00054546      -0.00092795       0.00021065
V        9.02594621       9.01443357       6.00997949      -0.00089059       0.00007723      -0.00086095
V       10.56319772      10.55386960       7.47342623      -0.00048425      -0.00049253      -0.00225227
V        9.03179542       9.06941623       8.98404463      -0.00050204      -0.00371053      -0.00271103
V       10.79338076      10.45001826      10.35405444       0.00350195      -0.00083643      -0.00327523
W       10.53416214       4.49034023       1.52454498       0.00081300      -0.00329589       0.00052468
W       10.53746761       7.51002645       7.53625030      -0.00021858      -0.00067670      -0.00074050
Zr       3.01576385       0.01633823       9.04567364       0.00060103       0.00178859      -0.00058026
Zr       9.02781551      -0.45914910       0.01184647       0.00064919      -0.00832274      -0.00056336
