124
Lattice="13.002903728225448 -0.009255746979815498 0.02985436048510635 -4.3430024538978165 12.242781786512072 -0.02221962293537814 -4.3055893186509335 -6.127411939181864 10.626069933025846" Properties=species:S:1:pos:R:3:forces:R:3 energy=-1108.2622133033292 free_energy=-1108.2622133033292 stress="0.00509097431427879 0.0003962672299118602 0.0007269680314949912 0.0003962672299118602 0.004389128415192943 0.000399444712844285 0.0007269680314949912 0.000399444712844285 0.005652513323775197" pbc="T T T"
V        0.03104347       0.04670444       0.03760187      -0.00037619      -0.00078705      -0.00032544
V       -0.86761613      -1.21063045       2.13769828       0.00049448      -0.00003539      -0.00093092
V       11.28142061      -2.45350290       4.26561038       0.00037167       0.00024833       0.00000984
V       -6.89575396       8.55757444       6.33856911      -0.00019898      -0.00107881       0.00054143
V       -3.45371223      -4.89255599       8.53378859       0.00029440      -0.00157438      -0.00014606
V       -1.66308105       1.23717782       2.12296082      -0.00038192      -0.00070243       0.00030272
V       -2.56438297       0.00724639       4.22318569       0.00002151       0.00042958       0.00073942
V       -3.40628074      -1.24623715       6.41740865       0.00056394       0.00093584       0.00063092
V       -2.55994637       3.66427091       2.07748703       0.00023818       0.00078241      -0.00077911
V       -3.44222709       2.48310264       4.23392646       0.00061177       0.00012048      -0.00030814
V       -4.24263664       1.17940028       6.32856092       0.00040673       0.00245920       0.00099903
V       -5.13461721       0.04691438       8.60261786       0.00112434      -0.00108344       0.00177588
V       -2.52312485       7.40466140      -0.08324985      -0.00051663       0.00034695      -0.00094730
V       -3.46069684       6.14688890       2.12215222       0.00018930       0.00020449      -0.00115001
V       -4.31767763       4.89566137       4.24034566       0.00003628       0.00042796      -0.00064078
V       -5.18869405       3.66056108       6.44981550       0.00213121       0.00152930      -0.00170712
V       -3.52473563       9.85408230       0.04872027      -0.00019140      -0.00143391       0.00001565
V        8.67128587       8.56073772       2.12559426       0.00051821      -0.00008775      -0.00040323
V        7.80374601       7.33058106       4.25499552      -0.00069107      -0.00008843       0.00019861
V       -6.04848997       6.11276873       6.37612164      -0.00058003       0.00094405      -0.00133976
V       -6.86707201       4.80859512       8.48379444      -0.00013220      -0.00165688      -0.00027211
V        2.60780131      -0.02069166      -0.01665091      -0.00005831      -0.00115364       0.00053050
V        1.76121721      -1.22751705       2.10456485      -0.00098316       0.00020636      -0.00041364
V       -3.48575262       9.79407901       4.20942043      -0.00048206      -0.00079173      -0.00042947
V        0.00316756      -3.67978292       6.39068243       0.00143656      -0.00045743      -0.00094264
V       -0.86684796      -4.90777837       8.52065104       0.00019848      -0.00041277      -0.00035632
V        1.71860353       2.42711508       0.04633737       0.00099902      -0.00077298      -0.00065797
V        0.90736317       1.21327286       2.15755124       0.00002595       0.00047558      -0.00057231
V        0.00522318       0.01572371       4.25619053      -0.00075724       0.00009347      -0.00019995
V       -0.84320670      -1.20573027       6.37331120       0.00101999      -0.00119227      -0.00015733
V       -1.78643803      -2.46430652       8.52775017      -0.00022640      -0.00042624      -0.00002492
V        0.83555246       4.85991336      -0.02360384       0.00031083      -0.00049522      -0.00027995
V        0.02938540       3.63145792       2.11615286       0.00049857      -0.00029204      -0.00001051
V       -0.86177130       2.46103886       4.25370735       0.00152681       0.00050625      -0.00083995
V       -1.72269479       1.25470415       6.39277130       0.00062288       0.00015712      -0.00041545
V       -2.58481609       0.03282319       8.50554306       0.00041568      -0.00143473       0.00015902
V        0.06648157       7.32183038       0.05188134      -0.00006508      -0.00017756      -0.00066848
V       -0.88537867       6.07223845       2.05392710       0.00152888       0.00106404      -0.00059802
V       -1.72082859       4.88164406       4.23153845       0.00005092       0.00045751      -0.00008301
V       -2.59949567       3.67415143       6.38663482       0.00142721       0.00014596      -0.00142367
V       -3.60022246       2.45347165       8.48225509       0.00055849      -0.00078328      -0.00047903
V       -5.23132228       3.61554528      10.47090762      -0.00122939      -0.00207317      -0.00305054
V       -1.73762963       8.57465031       2.07060255       0.00005527      -0.00080595      -0.00113907
V       -2.59628456       7.32308769       4.22123911       0.00010709       0.00014405      -0.00122766
V       -3.45140184       6.10850666       6.35332724       0.00047516       0.00073133      -0.00015856
V       -4.25683578       4.98314146       8.47682516       0.00094526       0.00013195      -0.00048200
V        0.88076241      -6.13982266      10.63926595       0.00002517      -0.00059558      -0.00000327
V        0.00069931      11.01089892       2.05493069       0.00007655      -0.00043054      -0.00119919
V       -0.87623955       9.78723147       4.17468957      -0.00029870       0.00040995      -0.00140857
V       -1.84310210       8.52807298       6.29113322       0.00121994       0.00052525      -0.00007514
V        1.78569154      -4.87634946       8.54237520      -0.00092855      -0.00166699      -0.00084482
V        4.32147781       2.44774826       0.02157195       0.00047326      -0.00091380       0.00042665
V        3.48759284       1.23197825       2.12340500       0.00025241      -0.00177600       0.00007256
V        2.60764618       0.03033107       4.23131590       0.00135111      -0.00048808       0.00129530
V        1.69344494      -1.20375724       6.37941937      -0.00001423       0.00050985       0.00000095
V        0.81196267      -2.45817105       8.54904383       0.00118748      -0.00041979      -0.00045852
V        3.45491456       4.90053528       0.02610146       0.00087377      -0.00084406       0.00014700
V        2.60811209       3.68211361       2.12373765       0.00058122      -0.00119165      -0.00001258
V        1.75264628       2.47303571       4.25490602      -0.00033513      -0.00010164      -0.00031669
V        0.85139607       1.26170170       6.38945136       0.00064626       0.00036903       0.00098736
V        0.00408600       0.01298311       8.53057765      -0.00025203       0.00010670       0.00030165
V        2.59820111       7.35003912      -0.01025874      -0.00062934      -0.00048901       0.00028324
V        1.75714653       6.10077052       2.13211960      -0.00043674       0.00069286      -0.00109904
V        0.87374277       4.88697542       4.23578061       0.00090164      -0.00054493      -0.00057807
V       -0.00028674       3.68055380       6.36962858      -0.00117858       0.00096836      -0.00019400
V       -0.87313790       2.46154988       8.51807960      -0.00172157       0.00064605      -0.00013258
V       -2.59537931       3.65396352      10.58208326       0.00053447       0.00046181       0.00013583
V        0.86028066       8.57265415       2.08248652       0.00027158      -0.00004593      -0.00027574
V        0.00213332       7.29113955       4.18382332       0.00008868       0.00182761       0.00004228
V       -0.82596929       6.12510769       6.37645624      -0.00041058       0.00102766      -0.00045590
V       -1.70680537       4.88840519       8.49871882      -0.00020248       0.00060292       0.00005784
V        3.45226989      12.21987381       0.00684802       0.00030147       0.00101569       0.00010534
V        6.96136048      -1.22452232       2.11906920      -0.00189346      -0.00073975      -0.00023154
V        1.75293254       9.82142847       4.10529003       0.00017508       0.00184175       0.00215918
V        4.45290141      -4.94143146       8.62707743      -0.00041095       0.00042629      -0.00095646
V        6.96528742       2.43094232       0.06971744      -0.00180417      -0.00030771      -0.00084057
V        6.06908082       1.22502502       2.15342974       0.00110995      -0.00010983       0.00063014
V        5.25849356       0.04350246       4.22990543       0.00070606       0.00016578       0.00134064
V        4.17884907      -1.07296006       6.16029935      -0.00048161      -0.00102312       0.00174649
V        6.08104108       4.88989039       0.02562500      -0.00167025       0.00014130       0.00069286
V        5.20371241       3.68548134       2.14145615       0.00024070      -0.00085247       0.00039328
V        4.37266070       2.47363971       4.25810053       0.00056918       0.00179145       0.00139298
V        3.50078601       1.31132774       6.42218072      -0.00155895       0.00076203       0.00060156
V        2.51085267       0.11437165       8.53336174      -0.00134530      -0.00096921      -0.00070001
V        5.19959474       7.35575061       0.02654888       0.00009838      -0.00021517      -0.00003975
V        4.34854462       6.12766413       2.13607186      -0.00106484      -0.00022203       0.00087478
V        3.47016916       4.91036463       4.22903360       0.00170862      -0.00068493       0.00173650
V        2.60920869       3.67570973       6.38349963       0.00056632       0.00164809      -0.00015229
V        1.75227717       2.48382757       8.52312727      -0.00069338      -0.00032227       0.00046594
V        4.33591743       9.79172647       0.00481203      -0.00218708      -0.00027664       0.00010528
V        3.47836014       8.56336614       2.12361668       0.00053646       0.00063363       0.00085055
V        2.60348409       7.35986329       4.28011427       0.00069029       0.00030625      -0.00067396
V        1.78013303       6.10117492       6.40638450      -0.00034091       0.00061892      -0.00048854
V        0.87633309       4.87729242       8.50816541      -0.00081157       0.00032086      -0.00007204
V       10.43943573       0.03940882       0.03032927      -0.00076018      -0.00041299       0.00013724
V        9.56150890      -1.22629647       2.13392429      -0.00010052       0.00063582       0.00060981
V        8.69988114      -2.43539662       4.29291945      -0.00041548      -0.00025253      -0.00041494
V        7.90087825      -3.70931059       6.50368117      -0.00053761       0.00227206      -0.00107523
V        8.73486679       1.26017891       2.09709623       0.00000911      -0.00083422       0.00005096
V        7.88405372       0.03700661       4.22483540       0.00082395       0.00081062       0.00091619
V        8.76392384       4.85902510       0.12173942      -0.00082884      -0.00108796       0.00030864
V        7.81031399       3.69076719       2.15771938       0.00027097       0.00044613       0.00047281
V        6.98019135       2.47006424       4.29712922       0.00074201       0.00028454       0.00164567
V        6.20712104       1.48983671       6.62572842       0.00211574       0.00156527       0.00877499
V        7.85951723       7.36293322       0.00426126      -0.00305017      -0.00069993       0.00105273
V        6.95002612       6.12689504       2.12820757       0.00034567       0.00018378      -0.00031217
V        6.11359707       4.91009110       4.26017963      -0.00031320       0.00037084      -0.00019076
V        5.17626080       3.75861614       6.32941828       0.00089870      -0.00164086       0.00140120
V        4.47208568       2.54061115       8.55788675      -0.00411313       0.00032702       0.00073147
V        6.93503131       9.80978775       0.00207318      -0.00124699       0.00091336       0.00019304
V        6.07460314       8.57094661       2.13140761      -0.00067516      -0.00023762      -0.00051709
V        5.20276858       7.35170941       4.26201826       0.00008030       0.00044011      -0.00002135
V        4.37506277       6.12447465       6.38767134       0.00021998      -0.00003645       0.00028026
V        3.48946640       4.96934110       8.53016239      -0.00127281       0.00042390      -0.00013276
Cr      -0.81272536       2.42306573       0.04623158      -0.00000058      -0.00008705      -0.00102118
Cr      -4.21195536      -2.46876238       8.54261256      -0.00041392      -0.00074413       0.00015656
Cr      -1.67232686       4.91766969       0.06516503       0.00003796      -0.00069587      -0.00038090
Cr       2.68750023       7.26556147       8.55837818       0.00031340       0.00107994       0.00013644
Cr       9.57319063       2.39570645       0.11330880      -0.00043543      -0.00035221      -0.00056448
Ti       5.20197162      -3.63250631       6.36176093       0.00123575       0.00195798      -0.00053698
Ti       3.46023847      -2.45090712       8.48870515       0.00052061      -0.00119982      -0.00030022
Ti       6.93718340      -1.13943106       6.40030831      -0.00012635       0.00076794       0.00073822
Ti       6.28318894      -2.57639133       8.71371166      -0.00033799       0.00009495      -0.00074335
Ti       5.13278483      -0.07298988       8.49441728       0.00016353       0.00037366       0.00062567
