124
Lattice="12.995147041 -0.013548323 0.022358575 -4.344442071 12.248515902 -0.022934774 -4.30710576 -6.130942661 10.617746937" Properties=species:S:1:pos:R:3:forces:R:3 stress="0.0032827654153221807 0.00012383778256664973 0.00044203615931330407 0.00012383778256664973 0.0034951015557847295 0.0004491389966985593 0.00044203615931330407 0.0004491389966985593 0.004031808925519431" free_energy=-1104.52480995 energy=-1104.51906657 pbc="T T T"
V       -4.27322000      12.13806000       0.01112000      -0.00205900       0.00242400      -0.00257800
V       12.08220000      -1.19965000       2.19455000       0.00098800      -0.00024400       0.00094800
V        6.93774000       9.78258000       4.22952000      -0.00230200      -0.00147900      -0.00042000
V       -6.90388000       8.57064000       6.33688000      -0.00019300       0.00218600       0.00054600
V       -3.46855000      -4.88996000       8.54172000      -0.00096400      -0.00194300      -0.00239000
V       -1.65909000       1.23682000       2.09696000       0.00081600      -0.00113700      -0.00483800
V       -2.57558000       0.02675000       4.24051000      -0.00269300       0.00040000       0.00110400
V       -3.39873000      -1.23163000       6.40192000      -0.00413000      -0.00275600      -0.00023200
V       -2.55948000       3.65963000       2.07928000      -0.00163600      -0.00286200      -0.00297700
V       -3.42760000       2.47059000       4.23287000      -0.00232300       0.00340900      -0.00251800
V       -4.28844000       1.21397000       6.35005000       0.00120200      -0.00036200      -0.00134100
V       -5.10069000      -0.06488000       8.58992000       0.00107900      -0.00151000       0.00384700
V       -2.60454000       7.46614000       0.03865000       0.00409300      -0.00107100       0.00588900
V       -3.46747000       6.16036000       2.11701000      -0.00243300      -0.00434700       0.00467900
V       -4.31067000       4.90948000       4.23917000      -0.00006700       0.00251700       0.00139800
V       -5.16951000       3.70900000       6.36588000      -0.00093700       0.00178100       0.00176700
V       -5.98069000       2.41598000       8.44086000      -0.00249300      -0.00008800       0.00400600
V        8.69636000       8.63837000       1.99636000      -0.00401500      -0.00418600      -0.00106400
V       -5.19335000       7.35568000       4.21541000      -0.00217900      -0.00080600      -0.00075300
V       -6.05289000       6.12553000       6.36501000       0.00130000       0.00189100      -0.00020600
V       -6.94125000       4.88250000       8.58581000       0.00010500       0.00021300       0.00225700
V       -1.65495000      -6.05652000      10.60677000       0.00077200      -0.00021700       0.00104400
V       -2.66591000      10.94669000       1.94790000      -0.00134000      -0.00020600      -0.00196300
V       -3.49292000       9.78593000       4.17090000      -0.00304000       0.00108300      -0.00073300
V       -4.35203000       8.55836000       6.35408000       0.00352600       0.00093600      -0.00181900
V       -5.21213000       7.32716000       8.47377000       0.00096300       0.00190100      -0.00003200
V        1.69725000       2.42355000       0.04159000      -0.00369100      -0.00268500      -0.00208800
V        0.89772000       1.18261000       2.13021000       0.00222100       0.00240300       0.00487600
V        0.01936000       0.00066000       4.23225000      -0.00186600       0.00186400       0.00401200
V       -0.84918000      -1.20660000       6.35538000       0.00166100      -0.00444600      -0.00157900
V       -1.78125000      -2.45947000       8.52339000       0.00020400      -0.00394500      -0.00302000
V        0.84133000       4.86208000      -0.00314000      -0.00072400      -0.00250900      -0.00344300
V        0.02390000       3.62488000       2.11318000       0.00226600      -0.00214500       0.00236700
V       -0.84564000       2.45298000       4.23772000       0.00128300      -0.00334700      -0.00215900
V       -1.71310000       1.25151000       6.36115000       0.00549200      -0.00468900      -0.00137700
V       -2.55716000       0.02430000       8.50192000       0.00121400      -0.00145400      -0.00095400
V       -0.00424000       7.38488000      -0.00371000       0.00684800      -0.00118000      -0.00101800
V       -0.88019000       6.06481000       2.04549000       0.00301100      -0.00244400       0.00335300
V       -1.71337000       4.88585000       4.22818000      -0.00009000      -0.00147800      -0.00050500
V       -2.57771000       3.68175000       6.36518000       0.00320900       0.00217700      -0.00006700
V       -3.44405000       2.46359000       8.50481000      -0.00101800      -0.00200800      -0.00461900
V       -5.32581000       3.68071000      10.58310000       0.00249900      -0.00175900      -0.00512300
V       -1.68914000       8.54839000       2.15838000      -0.00080900       0.00065800      -0.00094400
V       -2.61404000       7.33271000       4.21613000       0.00147600       0.00288400      -0.00206400
V       -3.45377000       6.11041000       6.36337000      -0.00069400       0.00406300      -0.00126500
V       -4.33310000       4.89217000       8.49672000       0.00274800       0.00216100       0.00003600
V       -3.45531000       6.10792000      10.59410000       0.00146000      -0.00023600      -0.00249700
V       -0.02787000      11.01108000       2.04918000      -0.00012000       0.00210400      -0.00268800
V       -0.90304000       9.81120000       4.17097000      -0.00243000      -0.00055500      -0.00444600
V       -1.84331000       8.53198000       6.28724000       0.00102300       0.00417100      -0.00167100
V        1.76112000      -4.89746000       8.52231000       0.00151500       0.00227800      -0.00136600
V        4.32356000       2.46597000       0.01562000       0.00154700       0.00188300      -0.00145600
V        3.46405000       1.21866000       2.12281000       0.00293800       0.00365800       0.00107400
V        2.58213000       0.01008000       4.20366000      -0.00173800      -0.00476200      -0.00529200
V        1.68720000      -1.21072000       6.36128000       0.00713200      -0.00028700      -0.00493000
V        0.80360000      -2.46195000       8.52130000       0.00453000       0.00274700      -0.00176400
V        3.44947000       4.90203000       0.02148000      -0.00272500       0.00317600      -0.00192900
V        2.60080000       3.67170000       2.12714000      -0.00047100      -0.00401000      -0.00102200
V        1.74558000       2.45563000       4.24951000      -0.00029200      -0.00160600      -0.00112900
V        0.86570000       1.25387000       6.37652000       0.00251100      -0.00432000       0.00292000
V        0.00490000       0.01420000       8.51555000       0.00211900       0.00011000       0.00133100
V        2.59944000       7.35265000       0.00748000       0.00008400       0.00246900       0.00147500
V        1.73544000       6.10533000       2.11617000       0.00033900      -0.00128000      -0.00079600
V        0.87606000       4.88436000       4.23208000       0.00268300      -0.00435900       0.00186100
V        0.01576000       3.68578000       6.36483000      -0.00057600      -0.00327000       0.00120400
V       -0.85661000       2.46803000       8.50699000       0.00125200      -0.00025800       0.00304900
V       -2.58596000       3.66932000      10.59906000       0.00028500       0.00000700      -0.00227600
V        0.87260000       8.56537000       2.08094000      -0.00330300       0.00125500       0.00094500
V        0.00366000       7.29130000       4.19707000       0.00188700      -0.00359100       0.00059100
V       -0.83353000       6.12633000       6.36689000      -0.00412100       0.00186600       0.00039600
V       -1.71501000       4.90787000       8.48773000       0.00331300       0.00112800      -0.00000600
V        3.45084000      12.23168000      -0.00381000      -0.00048900       0.00194000       0.00081100
V        2.61956000      11.02330000       2.08488000      -0.00291300      -0.00147000       0.00225500
V        1.74175000       9.79928000       4.09210000      -0.00362100       0.00260000       0.00125300
V        4.44009000      -4.94996000       8.61150000      -0.00376200       0.00204500       0.00153000
V        6.95618000       2.42937000       0.06089000       0.00244700      -0.00031400      -0.00425000
V        6.05631000       1.23510000       2.12661000       0.00013800      -0.00514500      -0.00083700
V        5.21751000       0.03762000       4.19938000      -0.00637400      -0.00501800       0.00326900
V        4.17087000      -1.06355000       6.17853000       0.00148200      -0.00478600      -0.00070700
V        6.05765000       4.87162000       0.01436000      -0.00162500      -0.00115800       0.00050800
V        5.19038000       3.69255000       2.13333000      -0.00092700      -0.00707300       0.00258000
V        4.34225000       2.48334000       4.24724000       0.00328400      -0.00385700       0.00224400
V        3.47079000       1.29468000       6.39644000      -0.00059400      -0.00229100      -0.00247400
V        2.51026000       0.07840000       8.51361000       0.00017100       0.00516800       0.00474800
V        5.18810000       7.37092000       0.02300000       0.00116400       0.00259500       0.00037700
V        4.33616000       6.12650000       2.13084000      -0.00205100       0.00012900       0.00336300
V        3.46943000       4.90705000       4.24960000       0.00250100      -0.00228900      -0.00065400
V        2.62283000       3.66433000       6.37999000      -0.00221800       0.00295100      -0.00204500
V        1.77489000       2.48844000       8.54653000      -0.00165900       0.00589200       0.00246800
V        4.34256000       9.80101000      -0.00096000      -0.00156900       0.00105600       0.00159300
V        3.48183000       8.56274000       2.11588000      -0.00271000       0.00325900      -0.00017100
V        2.60363000       7.34152000       4.26191000       0.00104700       0.00356900      -0.00273400
V        1.76610000       6.10190000       6.38818000      -0.00184000       0.00235100      -0.00126400
V        0.87559000       4.87916000       8.51784000       0.00077800       0.00446000       0.00051400
V        6.14387000      -6.09935000      10.63566000      -0.00056000      -0.00192900      -0.00246600
V        5.21722000      11.01468000       2.08696000      -0.00085700       0.00123500       0.00128300
V        8.69542000      -2.44561000       4.27577000      -0.00273200       0.00064200       0.00112500
V        7.90023000      -3.72664000       6.49235000       0.00146200       0.00376800      -0.00165300
V        8.72770000       1.25610000       2.08808000      -0.00065800      -0.00419900      -0.00258200
V        7.86543000       0.03518000       4.19681000      -0.00434500      -0.00051500       0.00349000
V        8.75998000       4.83553000       0.10190000       0.00356100      -0.00042100       0.00252400
V        7.79821000       3.68561000       2.16044000      -0.00083700      -0.00230400       0.00025100
V        6.96009000       2.47366000       4.25606000       0.00001900      -0.00077500       0.00262600
V        6.09294000       1.34572000       6.31906000       0.00129900       0.00549600       0.00443800
V        7.76219000       7.27475000       0.02517000       0.00443600       0.00257700      -0.00043400
V        6.94629000       6.13733000       2.14185000      -0.00246000      -0.00244300      -0.00423500
V        6.08360000       4.92206000       4.25664000       0.00207000       0.00008900       0.00254700
V        5.22882000       3.70986000       6.43120000       0.00001300       0.00651900       0.00153000
V        4.44672000       2.65241000       8.77402000       0.00179200      -0.00026100       0.00280300
V        7.03798000       9.82486000       0.02530000       0.00149300       0.00097300       0.00161400
V        6.09089000       8.57778000       2.11315000      -0.00187700       0.00044100       0.00254100
V        5.20371000       7.35416000       4.25047000      -0.00163800      -0.00073600       0.00266900
V        4.37854000       6.11746000       6.37265000      -0.00198000       0.00366000       0.00204400
V        3.42693000       5.01608000       8.47323000       0.00222800      -0.00617200       0.00022300
Cr      -0.81935000       2.42350000       0.04227000      -0.00150200      -0.00002700      -0.00237800
Cr      -4.21414000      -2.47216000       8.54624000      -0.00642900      -0.00246300      -0.00139900
Cr      -1.67021000       4.89854000       0.08159000       0.00065500      -0.00323200      -0.00049700
Cr       7.02973000      -4.96226000       8.59550000      -0.00182500       0.00438600      -0.00038300
Cr       9.56370000       2.39912000       0.10911000       0.00209600       0.00054900      -0.00664300
Ti       5.19285000      -3.63128000       6.36424000      -0.00210900      -0.00207200      -0.00459400
Ti       3.46342000      -2.43048000       8.47761000       0.00323900       0.00855000      -0.00113000
Ti       6.92863000      -1.20497000       6.35559000      -0.00600900       0.00510500       0.00458700
Ti       6.25482000      -2.55532000       8.71946000       0.00332900      -0.00099000       0.00532000
Ti       5.19637000       0.06688000       8.50510000       0.00134200       0.00396800       0.00478600
124
Lattice="12.995147041 -0.013548323 0.022358575 -4.344442071 12.248515902 -0.022934774 -4.30710576 -6.130942661 10.617746937" Properties=species:S:1:pos:R:3:forces:R:3 stress="0.0013101177315593994 -0.0002650394435215067 0.0005092696956173185 -0.0002650394435215067 0.0008263009101574328 0.00040551708941776116 0.0005092696956173185 0.00040551708941776116 0.0029220873274647652" free_energy=-1103.59239631 energy=-1103.58727795 pbc="T T T"
V       -4.27779000      12.18484000      -0.00213000      -0.05701100       0.03452200      -0.07016800
V       12.08623000      -1.20386000       2.10829000       0.11371100      -0.06575800       0.00490300
V        6.95489000       9.77542000       4.17517000      -0.10671300       0.01898000      -0.07360000
V       -6.86844000       8.57658000       6.32928000       0.00279000      -0.02859500       0.00013700
V       -3.47907000      -4.88878000       8.54147000       0.01810400      -0.00467000      -0.00418600
V       -1.66527000       1.24721000       2.09757000       0.01879000      -0.02529100      -0.02672300
V       -2.54733000       0.00852000       4.21927000      -0.02986400       0.02012400      -0.02573100
V       -3.38205000      -1.24202000       6.37834000       0.00927600       0.00853900      -0.00086900
V       -2.56091000       3.64620000       2.08356000      -0.00436200       0.00486400      -0.00135800
V       -3.41359000       2.46383000       4.25144000      -0.00505800       0.00886800      -0.01481600
V       -4.27519000       1.20776000       6.35442000      -0.00312400       0.00130900      -0.01411300
V       -5.10548000      -0.06245000       8.57730000       0.02101900      -0.00346800      -0.02510800
V       -2.60243000       7.41856000       0.02941000       0.07933900      -0.02305300      -0.07152800
V        9.51799000       6.05095000       2.13982000      -0.07386300       0.12165100      -0.05838300
V       -4.30933000       4.89301000       4.25636000      -0.02228700       0.04319500      -0.02898100
V       -5.15869000       3.70754000       6.36740000      -0.01720000       0.01591600       0.00031200
V       -5.99711000       2.41333000       8.44014000       0.02360800      -0.00107900      -0.04982500
V        8.49943000       8.38826000       1.89773000       0.51469400       0.65483500      -0.09988500
V        7.76614000       7.28936000       4.23424000       0.07182500       0.12212800      -0.13835900
V       -6.04741000       6.13215000       6.37710000      -0.00134100      -0.00194700      -0.01025000
V       -6.94853000       4.87816000       8.55334000      -0.00374500      -0.00727000       0.05667700
V       -1.61899000      -5.99593000      10.57142000      -0.01990400      -0.05351900       0.11817900
V        1.88831000      -1.04846000       1.89630000      -0.49789100      -0.58811800      -0.11058100
V       -3.47173000       9.77319000       3.60197000      -0.01038200      -0.01209800       1.77944100
V       -4.32929000       8.57589000       6.30788000      -0.02922400      -0.06137100      -0.06614100
V       -5.20629000       7.33671000       8.46814000      -0.00714000      -0.00491600       0.00624800
V        1.70075000       2.46699000       0.02901000       0.01041300      -0.02087000       0.00967200
V        0.90763000       1.27568000       2.12300000       0.06910700      -0.12585100      -0.02201200
V        0.04052000      -0.01470000       4.17216000      -0.05519400       0.07023700      -0.05445700
V       -0.86696000      -1.19881000       6.33613000       0.07064900      -0.05084100      -0.12874500
V       -1.78938000      -2.45609000       8.50808000       0.02070500      -0.00366400      -0.02111100
V       -3.47823000      -1.26471000      10.59686000       0.01306700       0.00113600       0.01897100
V        0.02332000       3.63992000       2.11393000       0.00818900      -0.00085900      -0.00594200
V       -0.84382000       2.44827000       4.24148000       0.00547300       0.01307600      -0.02668200
V       -1.70285000       1.23328000       6.34211000      -0.00077500      -0.01332800      -0.00637400
V       -2.58105000       0.02966000       8.48305000       0.02658000      -0.01837500      -0.01408800
V       -0.00568000       7.38495000      -0.00426000       0.00786200      -0.00215900       0.01327200
V       -0.87291000       6.05269000       2.04377000      -0.02455500       0.02500100      -0.01685900
V       -1.71316000       4.89248000       4.23168000      -0.00913200      -0.00775700      -0.03206400
V       -2.56793000       3.68220000       6.36525000      -0.00550100       0.01143600      -0.02097000
V       -3.46089000       2.46190000       8.49390000       0.01728300      -0.00602100      -0.01581500
V       -5.28382000       3.70089000      10.55958000       0.06944200      -0.05084700      -0.04845800
V       -1.67206000       8.55562000       2.06681000      -0.14946100       0.06454800       0.00404300
V       -2.61499000       7.33471000       4.15510000       0.04446300      -0.07853500      -0.05943700
V       -3.45384000       6.13622000       6.35545000      -0.01678900       0.00296700       0.00369100
V       -4.33550000       4.87880000       8.49761000      -0.00256200       0.01725300      -0.00631700
V       -3.41065000       6.13183000      10.56761000      -0.02112700      -0.00072800       0.02226500
V        4.43427000      -1.17334000       2.07529000      -0.17825700       0.00405800      -0.04260200
V       -0.88923000       9.81277000       4.11044000       0.07235400      -0.03750900      -0.06658900
V       -1.83879000       8.53104000       6.25979000      -0.06987800       0.04652400      -0.11595500
V        1.76392000      -4.89636000       8.49235000      -0.00556300       0.02110600      -0.01579100
V        0.03880000      -3.63217000      10.60175000      -0.00420400      -0.00314200       0.00426900
V        3.53110000       1.32704000       2.12704000      -0.06732500      -0.11972900       0.03000700
V        2.63519000       0.07772000       4.19825000      -0.08790800      -0.15411700      -0.13803100
V        1.66714000      -1.22467000       6.29218000       0.04954300       0.05435700      -0.03401900
V        0.80380000      -2.45427000       8.48718000      -0.00476500      -0.00476400      -0.03320100
V       -0.87543000      -1.21384000      10.60265000       0.01154800      -0.01860600       0.00697800
V        2.60531000       3.71822000       2.12660000       0.01050900      -0.03569800       0.00236700
V        1.73694000       2.48421000       4.26356000       0.02573600      -0.04715400      -0.02674200
V        0.86740000       1.22524000       6.35832000       0.01913400       0.00561400       0.00076700
V       -0.00791000       0.01807000       8.49230000       0.00018500      -0.02370100      -0.02658300
V       -1.71976000       1.22646000      10.60176000       0.00289500      -0.00945900       0.01120800
V        1.74296000       6.10455000       2.11550000      -0.00821200       0.00216200       0.00853100
V        0.86343000       4.89433000       4.24963000       0.00696700       0.00165500      -0.01134600
V        0.00801000       3.67866000       6.36567000       0.00832600      -0.00773500      -0.01642900
V       -0.86246000       2.46222000       8.48896000       0.00398300      -0.00877700      -0.01421600
V       -2.57668000       3.67610000      10.57320000       0.01953700       0.00781100       0.00849200
V        0.90341000       8.56859000       2.08098000      -0.02942900       0.01595000      -0.03414700
V       -0.01848000       7.30500000       4.17479000       0.03003300      -0.01304900      -0.01895500
V       -0.85449000       6.14321000       6.35243000       0.00897100       0.00369600       0.00407600
V       -1.70811000       4.90102000       8.46741000      -0.00575200       0.00966100      -0.00580600
V       -0.84517000       6.10446000      10.58714000      -0.00563400       0.00685200       0.01580600
V        6.97462000      -1.20725000       2.10330000       0.00215300      -0.00288900      -0.00528200
V        1.73549000       9.78225000       4.10790000       0.00980700       0.01020600      -0.04966300
V        4.44144000      -4.95324000       8.59335000      -0.01264000       0.00703800      -0.00917000
V        6.97633000       2.42008000       0.02120000      -0.02215600       0.01196800       0.01322300
V        6.09891000       1.25452000       2.12757000      -0.03080200      -0.00912100      -0.00023100
V        5.24327000       0.04167000       4.23073000      -0.03952200       0.00092700      -0.04194400
V        4.13388000      -1.09832000       6.16865000      -0.01588400       0.05464500       0.01012200
V        1.73064000      -1.28857000      10.59753000       0.00595500       0.00595700       0.00717900
V        5.19575000       3.68690000       2.13428000      -0.00048900       0.00718700      -0.00342100
V        4.35386000       2.50988000       4.27734000      -0.01877600      -0.03652000      -0.02796700
V        3.46832000       1.28789000       6.39358000      -0.00168900      -0.00319000      -0.00300300
V        2.51357000       0.07524000       8.48185000      -0.00948700       0.00468300       0.01922100
V        0.83530000       1.21877000      10.61680000       0.02324700      -0.00190900       0.02384400
V        4.30311000       6.10677000       2.12864000       0.03140500       0.00433600      -0.00475200
V        3.45040000       4.92924000       4.26849000       0.01517700      -0.01593800      -0.01916000
V        2.60804000       3.67612000       6.37824000       0.01715400      -0.01924300      -0.00293000
V        1.77555000       2.49241000       8.54013000      -0.00507800      -0.01882400      -0.00059000
V        0.02838000       3.67215000      10.59447000      -0.02702500      -0.01325400       0.01038400
V        3.47039000       8.56713000       2.10993000       0.01208900      -0.01053500      -0.00423000
V        2.59291000       7.34850000       4.27727000       0.00168700      -0.00273300      -0.01582400
V        1.74968000       6.11362000       6.40354000      -0.00239400       0.00231600      -0.02399100
V        0.88502000       4.87521000       8.51065000      -0.01595600       0.00646500      -0.01533900
V        6.14288000      -6.10130000      10.63275000      -0.01048500       0.00284500       0.01165700
V        5.19226000      11.02568000       2.09333000       0.03104200      -0.02348600      -0.02986000
V        8.69496000      -2.44103000       4.28695000      -0.01085800      -0.01348800      -0.03575800
V        7.89800000      -3.71871000       6.49055000       0.00012200       0.00089300      -0.02015200
V        8.72529000       1.25498000       2.09233000       0.00031700      -0.00769200       0.01510600
V        7.87932000       0.03020000       4.21961000       0.00226800       0.00381800      -0.01752100
V        8.76727000       4.79096000       0.09140000      -0.01797800       0.01818000       0.00605800
V        7.79537000       3.63514000       2.16974000      -0.00715500       0.03673500      -0.00369800
V        6.98026000       2.45906000       4.28097000      -0.01434500       0.01818100      -0.01829700
V        6.10100000       1.33076000       6.31576000      -0.00895000       0.01518800      -0.00384800
V        3.41112000       1.07663000      10.58092000       0.03740700       0.07649400       0.17055700
V        6.87384000       6.03146000       2.14660000       0.08239600       0.13129200       0.03419600
V        6.06782000       4.89511000       4.28385000       0.02337200       0.04215100      -0.02341300
V        5.22260000       3.71279000       6.41457000       0.00164200       0.00328800       0.01705500
V        4.43101000       2.63146000       8.70264000       0.00412700      -0.00008700       0.08810800
V        2.69017000       3.67486000      10.61568000      -0.06388100       0.06577800      -0.05626200
V        5.98209000       8.54055000       2.11610000       0.17309500      -0.02980000      -0.05158800
V        5.18658000       7.35254000       4.26958000       0.03483700      -0.00508900      -0.03431100
V        4.36966000       6.13684000       6.37407000       0.00993000      -0.01812500      -0.00106400
V        3.42821000       5.01375000       8.47160000      -0.00817300      -0.00776600      -0.04058700
Cr      -0.83024000       2.43231000       0.02642000       0.01591200       0.01668400       0.01487500
Cr      -4.22137000      -2.47270000       8.52657000       0.00898500      -0.00482800      -0.00187500
Cr      -1.67012000       4.88725000       0.06826000      -0.00487400      -0.01463600       0.00725600
Cr       2.67897000       7.28712000       8.56217000      -0.00618500       0.00212000      -0.01742700
Cr       9.56824000       2.39571000       0.08667000      -0.00239900      -0.00204800       0.01749700
Ti       5.15614000      -3.63281000       6.35410000      -0.00377200       0.00330500      -0.00064900
Ti       3.46704000      -2.41823000       8.45676000      -0.01458200      -0.00055700      -0.00796600
Ti       6.93446000      -1.22309000       6.35070000      -0.01263800       0.01372600      -0.01207900
Ti       6.25402000      -2.56019000       8.69845000      -0.00340700       0.00599200      -0.01253100
Ti       5.21657000       0.06425000       8.50480000      -0.01752300      -0.00624200      -0.00992000
124
Lattice="12.995147041 -0.013548323 0.022358575 -4.344442071 12.248515902 -0.022934774 -4.30710576 -6.130942661 10.617746937" Properties=species:S:1:pos:R:3:forces:R:3 stress="-0.0021420297584210015 -0.0012378909879546783 0.0006150882413375433 -0.0012378909879546783 -0.003799200363416014 2.7019493005948626e-05 0.0006150882413375433 2.7019493005948626e-05 -0.00019732531101479919" free_energy=-1101.00478104 energy=-1101.00074003 pbc="T T T"
V       -4.25721000      12.16782000       0.02390000      -0.02899000       0.00937900      -0.05655200
V       12.04327000      -1.18151000       2.10777000       0.09204600      -0.06305900      -0.10187300
V       -5.99836000       9.78161000       4.18317000      -0.17136900       0.03131800      -0.05178500
V       -2.52631000      -3.66016000       6.35418000       0.00675100      -0.03546400      -0.00370100
V        9.51214000      -4.90141000       8.56576000       0.00235300      -0.00123000       0.00940800
V       -1.67404000       1.25487000       2.10934000       0.01811500      -0.02109100      -0.00160800
V       -2.53406000      -0.00027000       4.22990000      -0.01423100       0.01314800      -0.01414100
V       -3.38562000      -1.24498000       6.37806000       0.00226300      -0.00101500       0.00365800
V       -2.55802000       3.64597000       2.08725000       0.00146800       0.01156500      -0.00956800
V       -3.41094000       2.46102000       4.25712000      -0.00760200       0.00534000      -0.00396800
V       -4.27435000       1.20764000       6.35972000      -0.01059200       0.01051700      -0.00197600
V       -5.11442000      -0.05900000       8.58473000       0.00150500       0.00512700      -0.00059200
V       -2.63295000       7.42972000       0.05721000       0.01201700       0.00627400      -0.06253000
V       -3.44822000       6.02001000       2.13919000      -0.02646800       0.06451500      -0.00165200
V       -4.29953000       4.87747000       4.26634000      -0.02189200       0.03987600      -0.00949200
V       -5.15111000       3.70072000       6.36780000      -0.01640000       0.01806800      -0.00186300
V       -6.00546000       2.41353000       8.45939000      -0.00462300       0.00649400      -0.01727800
V        8.29466000       8.13067000       1.93854000       0.27406000       0.35834900      -0.57739400
V        7.73795000       7.24249000       4.28665000       0.09098100       0.14958500      -0.25393300
V       -6.04693000       6.13328000       6.38321000       0.00144700       0.00609700      -0.01802400
V       -6.94677000       4.88086000       8.53030000       0.00209800       0.00083000       0.00924500
V       -1.60740000      -5.97177000      10.52292000       0.02508600       0.02277000       0.01827300
V        2.08252000      -0.82157000       1.94518000      -0.24272400      -0.30774600      -0.57627500
V       -3.46761000       9.77591000       2.89291000       0.02718000      -0.00199900       2.52584900
V        0.02619000      -3.64638000       6.35600000      -0.00737600      -0.00870200      -0.05745800