125
Lattice="-7.334698984912011 7.327326602869729 7.330561733762222 7.332652321213073 -7.332808832545034 7.3339977034273796 7.33118444310953 7.329295232443135 -7.3360444405480525" Properties=species:S:1:pos:R:3:energies:R:1:forces:R:3 energy=-1130.5306979233092 free_energy=-1130.5306979233092 stress="-0.0005553894119067912 -3.503544604492308e-05 0.0002641162263042306 -3.503544604492308e-05 -0.0006792416401304126 -9.339056550305877e-06 0.0002641162263042306 -9.339056550305877e-06 -0.0006569526362931516" pbc="T T T"
Cr       2.93028414      -2.93875045       2.92690405      -7.29573098       0.00124329       0.00154656       0.00073222
Cr       2.94262653       8.77984846      -2.92986971      -7.46329804      -0.00274849       0.00151559      -0.00159504
Cr       4.39844272       7.34359505      -1.50015615      -7.44287668       0.00216859      -0.00130163       0.00134367
Cr       5.89091346       2.90162348       2.95276969      -7.74380543      -0.00279664       0.00212299      -0.00059181
Cr       1.42663272       4.39788191       4.36925628      -8.20814795       0.00066871       0.00002674      -0.00022757
Cr      -4.40493395       7.34146508       4.40449246      -7.53043485      -0.00122576       0.00088808      -0.00143766
Ti       2.94492934       0.01587139       0.01618446      -8.29183201      -0.00102172      -0.00009122       0.00024152
Ti       4.43355197      -4.38641241       7.34212590      -7.91124262      -0.00003879      -0.00008095      -0.00038727
Ti       4.36872521       4.39697137       1.45447615      -9.13597966       0.00049379      -0.00043224       0.00056439
Ti       1.46323838      10.24261824       1.45533590      -8.10186693      -0.00046290      -0.00123186      -0.00161192
Ti       4.38718352       7.32957961       4.38253807      -7.97920762       0.00071351      -0.00016179      -0.00135339
V        0.01023670      -0.00089885       0.00655991      -9.04200586       0.00068430      -0.00049066       0.00048190
V        1.46546907       1.48210945      -1.46496380      -9.30208687       0.00030678       0.00007281      -0.00014296
V        2.93320378       2.93597148      -2.93990800      -9.57255158      -0.00065546      -0.00100463      -0.00050572
V        4.39923988       4.39552800      -4.40541023      -9.10838438       0.00035639      -0.00015889       0.00061201
V        5.85930734       5.86481968      -5.84236732      -8.94996222      -0.00029134       0.00068716      -0.00004805
V        1.46940822      -1.46636317       1.47686794      -9.02189252       0.00004156       0.00048192      -0.00015553
V        4.41055374       1.47043479      -1.48605408      -9.53717922      -0.00005686       0.00002712      -0.00056210
V        5.85817307       2.92787260      -2.95626816      -9.27724814       0.00019554       0.00019069       0.00144900
V        7.32466978       4.39758242      -4.40674765      -9.05134995      -0.00027692       0.00011337      -0.00030813
V        4.40740371      -1.47553720       1.47217744      -9.04897351      -0.00105115      -0.00073871       0.00070937
V        5.85559757      -0.01541665       0.00404369      -9.35721949      -0.00018251       0.00039831      -0.00095409
V        7.33004724       1.46786466      -1.47820105      -9.45944558      -0.00008069       0.00042744      -0.00039956
V        8.78832300       2.92778424      -2.95750163      -9.11301638      -0.00037375      -0.00009690       0.00132703
V        4.41759231      -4.39740281       4.40306201      -9.04949637      -0.00013566       0.00018583       0.00020804
V        5.87843630      -2.92809126       2.93546482      -9.18396059      -0.00100962       0.00018676       0.00085872
V        7.33436498      -1.47208196       1.47481260      -9.35654254       0.00038892      -0.00021150      -0.00074772
V        8.79123787      -0.02362129       0.00294390      -9.32789414      -0.00078580      -0.00038946      -0.00057154
V       10.25004160       1.47853676      -1.45960063      -9.04289113      -0.00044109       0.00096102       0.00039751
V        5.87612075      -5.84065425       5.86114636      -8.98815702      -0.00048653      -0.00016851       0.00045530
V        7.33942149      -4.39604093       4.40077639      -9.43287014       0.00008052       0.00043128       0.00076527
V        8.79321922      -2.91407670       2.95213183      -9.49327117      -0.00011778       0.00041880       0.00077730
V       10.25662572      -1.47840734       1.47758142      -9.41110541       0.00090820       0.00134529       0.00130051
V       11.74149097      -0.00221634       0.00388844      -9.03286213       0.00119824       0.00013169      -0.00027880
V       -1.45545594       1.46956875       1.47349233      -8.96553073       0.00097700      -0.00002521       0.00000207
V        0.00457422       2.93752056       0.00012222      -9.07559917       0.00010711       0.00025957       0.00086362
V        1.46137491       4.40180072      -1.46520925      -9.05667816       0.00049722      -0.00021856       0.00015433
V        2.93806581       5.85596618      -2.93541570      -9.14712931      -0.00050594      -0.00085001      -0.00063891
V        4.39519995       7.32940695      -4.40035525      -9.16557678       0.00073612       0.00052445      -0.00157203
V        0.00389433      -0.00173838       2.93038798      -9.11805320      -0.00029124       0.00039350      -0.00056445
V        1.46930937       1.48128320       1.48609471      -9.43902642      -0.00038896      -0.00002379      -0.00020335
V        2.90866336       2.92011477      -0.03068392      -9.56003606      -0.00042045      -0.00057959      -0.00012558
V        4.40157503       4.39266101      -1.48401128      -9.46496231       0.00109463       0.00023367       0.00112828
V        5.86448507       5.86805512      -2.93687144      -9.15133103       0.00065204      -0.00017974       0.00092551
V        1.46839656      -1.45749789       4.39499188      -9.05204948       0.00069367      -0.00079343      -0.00054010
V        2.93886086      -0.01425877       2.92806785      -9.38774033      -0.00025591      -0.00103983       0.00015244
V        4.37726741       1.45628520       1.46198408      -9.91117098      -0.00000394       0.00012175      -0.00010061
V        7.33666715       4.39548388      -1.48334994      -9.49193200      -0.00074333      -0.00058427       0.00030072
V        2.93903305      -2.92304563       5.86327999      -9.09711614      -0.00034981       0.00008973      -0.00091721
V        4.39985594      -1.47025812       4.40245190      -9.05213254      -0.00116665      -0.00077770      -0.00137802
V        5.86182162      -0.01437292       2.93400450      -9.25303431      -0.00071769       0.00022298       0.00053743
V        7.35496775       1.43408917       1.44009160      -9.51855431       0.00096819      -0.00063345      -0.00026565
V        5.87768899      -2.92453402       5.86527065      -8.96934562      -0.00035886      -0.00050566      -0.00011431
V        7.33265868      -1.47578025       4.40612997      -8.97822645       0.00105685      -0.00045071      -0.00047054
V        8.79292709      -0.01161002       2.93640636      -9.20721147       0.00023499       0.00143822       0.00061594
V       10.26637094       1.45587284       1.46438807      -9.09393923      -0.00032248       0.00067294       0.00143109
V       -2.93356641       2.93516957       2.93459322      -9.16470911      -0.00082106       0.00024469      -0.00023349
V       -1.46111107       4.40517736       1.46934818      -9.39928002       0.00129671      -0.00019451       0.00038823
V        0.00163868       5.86226665      -0.01459353      -9.23337483       0.00023858       0.00014525       0.00112981
V        1.46616647       7.32462407      -1.47145367      -9.15864430      -0.00099583       0.00046854       0.00028200
V       -1.45779945       1.46633684       4.40285444      -9.18857069       0.00181085       0.00069929       0.00047342
V       -0.04789174       2.89820154       2.90944756      -9.55365181      -0.00088789      -0.00048176      -0.00035229
V        1.46242946       4.39335817       1.47025717      -9.90459412      -0.00041184       0.00035136       0.00025308
V        2.92767170       5.85700317      -0.01255730      -9.27108872      -0.00016733       0.00026563       0.00032626
V        0.01118140      -0.00102805       5.85951381      -9.03425090      -0.00181762      -0.00010704       0.00058465
V        1.46639202       1.47002658       4.39246576      -9.57084456      -0.00011666       0.00039119      -0.00085428
V        5.87572552       5.88564208      -0.01950117      -9.33370709      -0.00046060       0.00097872      -0.00134447
V        1.47007002      -1.44471379       7.32815751      -9.07111960       0.00005649      -0.00076489      -0.00012133
V        2.93581371      -0.00246269       5.86391516      -9.04546161      -0.00067942      -0.00039680       0.00024792
V        4.37147729       1.44685310       4.41683156      -9.51130717      -0.00041248       0.00013404      -0.00066891
V        7.35338186       4.40711487       1.44085023      -9.47028340      -0.00097522       0.00016811      -0.00044099
V        2.94135973      -2.92368599       8.79629190      -9.05533453       0.00021032       0.00005714       0.00099037
V        4.41077189      -1.46177518       7.33173145      -8.99827209      -0.00031950      -0.00103165       0.00063016
V        5.86409770      -0.00408724       5.86467470      -8.98488112       0.00048642       0.00034710       0.00038298
V        7.33597181       1.43501277       4.42445424      -9.11196270       0.00245170      -0.00050709       0.00087116
V        8.80536834       2.92686668       2.95408722      -9.24809841       0.00234473      -0.00044982       0.00171529
V       -4.39374548       4.40361280       4.40059386      -9.18630408      -0.00135524      -0.00057433      -0.00140485
V       -2.94579245       5.86329934       2.91914127      -9.38348067      -0.00077046      -0.00013757      -0.00000649
V       -1.46757264       7.32454768       1.46193063      -9.42407975       0.00077218      -0.00053624       0.00108679
V       -0.00021188       8.79159918       0.01217070      -9.04646208       0.00163020       0.00047057       0.00121383
V        1.46383078      10.25083068      -1.46244507      -9.13174882       0.00092083      -0.00092509       0.00008323
V       -2.93674892       2.92558311       5.86215743      -9.17067566       0.00100960       0.00093234       0.00139083
V       -1.46900467       4.39902114       4.40124788      -9.64353261       0.00096128      -0.00058217       0.00086689
V        1.46024142       7.32213685       1.46771551      -9.46447586      -0.00075860      -0.00011827      -0.00010476
V        2.92653451       8.79754012       0.00130286      -9.20362623      -0.00134650       0.00103390       0.00075928
V       -1.46356110       1.46378164       7.33074299      -9.21892072       0.00000721      -0.00026752      -0.00173806
V       -0.02086467       2.91374364       5.88546125      -9.59528635      -0.00090277       0.00026226       0.00077168
V        2.93639993       5.89268165       2.89548064      -9.60214573       0.00007355       0.00029150      -0.00043638
V        4.39456716       7.33899725       1.45906317      -9.04419103       0.00086004      -0.00092380       0.00000641
V        0.00476209       0.00531090       8.79640030      -9.47556292      -0.00106626      -0.00199039      -0.00026078
V        1.46149004       1.45410414       7.31849805      -9.53740513      -0.00040312       0.00076611      -0.00132695
V        2.93589142       2.90631596       5.90166022      -9.74809659      -0.00021520      -0.00059092      -0.00095647
V        4.36495054       4.39559966       4.41345059      -9.69784901       0.00065338      -0.00059954      -0.00129537
V        5.87593694       5.85827533       2.91078566      -9.25577497      -0.00070496       0.00039718       0.00013258
V        1.46772672      -1.47285836      10.25469222      -9.35690612       0.00126912      -0.00003363       0.00102198
V        2.93273068       0.00464288       8.79775848      -9.46609934      -0.00048541      -0.00037979       0.00159268
V        4.39590708       1.45168593       7.33819113      -9.05070960       0.00058580      -0.00001922      -0.00068134
V        5.85441892       2.90402530       5.86891391      -9.14826736       0.00009841      -0.00009605      -0.00005871
V        7.34549066       4.41431543       4.42847740      -9.16643986       0.00120801       0.00062385       0.00027888
V       -5.86023550       5.85885760       5.86338960      -9.10060879       0.00038190       0.00016849      -0.00018581
V       -2.92638580       8.79545026       2.92659823      -9.37545949      -0.00079134      -0.00032012       0.00080668
V       -1.47184769      10.24827016       1.46444520      -8.91230481       0.00055533      -0.00047770      -0.00055169
V        0.00043032      11.72027421       0.00778826      -9.03779857       0.00058527      -0.00006811       0.00065062
V       -4.40089022       4.39581451       7.33822279      -9.12645284      -0.00021192       0.00011563      -0.00017765
V       -2.93052827       5.86457507       5.86233643      -9.10445566      -0.00018019      -0.00041149       0.00057209
V       -1.46437918       7.32418711       4.39445196      -9.62043608       0.00029843       0.00031219       0.00053120
V       -0.01322877       8.80431263       2.92150513      -9.25727324       0.00069258      -0.00043987      -0.00110067
V       -2.92890179       2.93590767       8.80271165      -9.08657049      -0.00032203       0.00024420      -0.00057177
V       -1.47232920       4.39450712       7.33217387      -9.32564144       0.00102841      -0.00055806      -0.00159351
V       -0.03087865       5.87645804       5.89604088      -9.69275842       0.00029291      -0.00057452       0.00096713
V        1.44743994       7.31965100       4.38787957      -9.57299846      -0.00004771       0.00013995       0.00009939
V        2.92226661       8.80443090       2.91478560      -9.11086220      -0.00033092      -0.00065697      -0.00043191
V       -1.46241040       1.47584191      10.25352154      -9.25429325      -0.00132340      -0.00045159       0.00056359
V        0.00213579       2.92204260       8.80663944      -9.77923933      -0.00092852       0.00086711      -0.00090647
V        2.92947825       5.87510812       5.89169279      -9.50601508      -0.00098804       0.00020263      -0.00042104
V        0.00163731       0.00790080      11.73149500      -9.52407009       0.00019536      -0.00088623      -0.00026320
V        2.92855421       2.92786305       8.80788877      -9.83312671       0.00077196      -0.00162291       0.00210334
V        4.40019178       4.39334281       7.34119204      -9.28514420       0.00078647       0.00014379       0.00001010
W        5.87335132       2.91588543      -0.02581646      -6.72267892       0.00020627       0.00112476      -0.00173751
W        2.92897412       2.86394845       2.91193229      -7.03026645      -0.00082988       0.00098532       0.00017665
W       -0.03289812       5.88156481       2.90853345      -6.84347538      -0.00019771       0.00043104      -0.00269314
W        1.45624408       4.38780571       7.35708356      -6.87806526      -0.00356038       0.00122093      -0.00198996
W        1.45800400       1.47657557      10.25067739      -6.87024759       0.00396697      -0.00115368       0.00262498
Zr       8.78616599       2.92846207      -0.01141237      -8.06479783      -0.00004422       0.00067579      -0.00146736
Zr       5.88442226       5.83992035       5.88547512      -7.86701486       0.00042157       0.00077335       0.00022584
