 vasp.6.4.2 20Jul23 (build Sep 20 2024 16:56:05) complex                         
 executed on              LinuxNV date 2025.04.25  12:07:27
 running    4 mpi-ranks, with    8 threads/rank, on    1 nodes
 distrk:  each k-point on    4 cores,    1 groups
 distr:  one band on NCORE=   1 cores,    4 groups
 OpenACC runtime initialized ...    4 GPUs detected


--------------------------------------------------------------------------------------------------------


 INCAR:
   ENCUT = 520.000000
   POTIM = 0.200000
   SIGMA = 0.200000
   EDIFF = 1.00e-06
   EDIFFG = -1.00e-02
   ALGO = Normal
   GGA = PE
   PREC = Accurate
   IBRION = 2
   ISIF = 2
   ISMEAR = 1
   LORBIT = 11
   NELM = 100
   NSW = -1
   LCHARG = .TRUE.
   LWAVE = .FALSE.
   LREAL = .FALSE.

 POTCAR:    PAW_PBE Cr_pv 02Aug2007               
 POTCAR:    PAW_PBE Ti_pv 07Sep2000               
 POTCAR:    PAW_PBE V_pv 07Sep2000                
 POTCAR:    PAW_PBE W_sv 04Sep2015                
 POTCAR:    PAW_PBE Zr_sv 04Jan2005               
 POTCAR:    PAW_PBE Cr_pv 02Aug2007               
   SHA256 =  c9a7df34d3cdbacf1090e328ef39c0b420964e11c23f63548d1ac9dd218cdba0 Cr_pv/POTCAR          
   COPYR  = (c) Copyright 02Aug2007 Georg Kresse                                                    
   COPYR  = This file is part of the software VASP. Any use, copying, and all other rights are regul
   COPYR  = If you do not have a valid VASP license, you may not use, copy or distribute this file. 
   VRHFIN =Cr : p6d5s1                                                                              
   LEXCH  = PE                                                                                      
   EATOM  =  1647.9177 eV,  121.1185 Ry                                                             
                                                                                                    
   TITEL  = PAW_PBE Cr_pv 02Aug2007                                                                 
   LULTRA =        F    use ultrasoft PP ?                                                          
   IUNSCR =        1    unscreen: 0-lin 1-nonlin 2-no                                               
   RPACOR =    2.080    partial core radius                                                         
   POMASS =   51.996; ZVAL   =   12.000    mass and valenz                                          
   RCORE  =    2.300    outmost cutoff radius                                                       
   RWIGS  =    2.500; RWIGS  =    1.323    wigner-seitz radius (au A)                               
   ENMAX  =  265.681; ENMIN  =  199.261 eV                                                          
   ICORE  =        3    local potential                                                             
   LCOR   =        T    correct aug charges                                                         
   LPAW   =        T    paw PP                                                                      
   EAUG   =  519.424                                                                                
   DEXC   =    0.000                                                                                
   RMAX   =    2.356    core radius for proj-oper                                                   
   RAUG   =    1.300    factor for augmentation sphere                                              
   RDEP   =    2.447    radius for radial grids                                                     
   RDEPT  =    1.882    core radius for aug-charge                                                  
                                                                                                    
   Atomic configuration                                                                             
    8 entries                                                                                       
     n  l   j            E        occ.                                                              
     1  0  0.50     -5880.4963   2.0000                                                             
     2  0  0.50      -667.0865   2.0000                                                             
     2  1  1.50      -560.6250   6.0000                                                             
     3  0  0.50       -73.9860   2.0000                                                             
     3  1  1.50       -45.4378   6.0000                                                             
     3  2  2.50        -2.9137   5.0000                                                             
     4  0  0.50        -4.0071   1.0000                                                             
     4  3  2.50        -1.3606   0.0000                                                             
   Description                                                                                      
     l       E           TYP  RCUT    TYP  RCUT                                                     
     1    -45.4377911     23  2.000                                                                 
     1      1.3605826     23  2.000                                                                 
     2     -2.9136672     23  2.300                                                                 
     2     -4.2742498     23  2.300                                                                 
     0     -4.0071320     23  2.300                                                                 
     0      9.4498803     23  2.300                                                                 
     3      2.7211652     23  2.300                                                                 
  local pseudopotential read in
  partial core-charges read in
  partial kinetic energy density read in
  atomic valenz-charges read in
  non local Contribution for L=            1  read in
    real space projection operators read in
  non local Contribution for L=            1  read in
    real space projection operators read in
  non local Contribution for L=            2  read in
    real space projection operators read in
  non local Contribution for L=            2  read in
    real space projection operators read in
  non local Contribution for L=            0  read in
    real space projection operators read in
  non local Contribution for L=            0  read in
    real space projection operators read in
    PAW grid and wavefunctions read in
 
   number of l-projection  operators is LMAX  =            6
   number of lm-projection operators is LMMAX =           18
 
 POTCAR:    PAW_PBE Ti_pv 07Sep2000               
   SHA256 =  f757a1b2c6d082f4c628fa3d987464a8763bf92e53844ac0500b0e2ddc9ce5c0 Ti_pv/POTCAR          
   COPYR  = (c) Copyright 07Sep2000 Georg Kresse                                                    
   COPYR  = This file is part of the software VASP. Any use, copying, and all other rights are regul
   COPYR  = If you do not have a valid VASP license, you may not use, copy or distribute this file. 
   VRHFIN =Ti: d3 s1                                                                                
   LEXCH  = PE                                                                                      
   EATOM  =  1042.5995 eV,   76.6289 Ry                                                             
                                                                                                    
   TITEL  = PAW_PBE Ti_pv 07Sep2000                                                                 
   LULTRA =        F    use ultrasoft PP ?                                                          
   IUNSCR =        1    unscreen: 0-lin 1-nonlin 2-no                                               
   RPACOR =    2.200    partial core radius                                                         
   POMASS =   47.880; ZVAL   =   10.000    mass and valenz                                          
   RCORE  =    2.500    outmost cutoff radius                                                       
   RWIGS  =    2.500; RWIGS  =    1.323    wigner-seitz radius (au A)                               
   ENMAX  =  222.335; ENMIN  =  166.751 eV                                                          
   RCLOC  =    1.701    cutoff for local pot                                                        
   LCOR   =        T    correct aug charges                                                         
   LPAW   =        T    paw PP                                                                      
   EAUG   =  482.848                                                                                
   DEXC   =    0.000                                                                                
   RMAX   =    2.564    core radius for proj-oper                                                   
   RAUG   =    1.300    factor for augmentation sphere                                              
   RDEP   =    2.538    radius for radial grids                                                     
   RDEPT  =    1.952    core radius for aug-charge                                                  
                                                                                                    
   Atomic configuration                                                                             
    8 entries                                                                                       
     n  l   j            E        occ.                                                              
     1  0  0.50     -4865.3608   2.0000                                                             
     2  0  0.50      -533.1368   2.0000                                                             
     2  1  1.50      -440.5031   6.0000                                                             
     3  0  0.50       -59.3186   2.0000                                                             
     3  1  1.50       -35.7012   6.0000                                                             
     3  2  2.50        -1.9157   3.0000                                                             
     4  0  0.50        -3.7291   1.0000                                                             
     4  3  2.50        -1.3606   0.0000                                                             
   Description                                                                                      
     l       E           TYP  RCUT    TYP  RCUT                                                     
     1    -35.7012140     23  2.300                                                                 
     1     -1.3605826     23  2.300                                                                 
     2     -1.9156996     23  2.500                                                                 
     2     -0.4063033     23  2.500                                                                 
     0     -3.7290856     23  2.500                                                                 
     0     20.4087390     23  2.500                                                                 
  local pseudopotential read in
  partial core-charges read in
  partial kinetic energy density read in
  atomic valenz-charges read in
  non local Contribution for L=            1  read in
    real space projection operators read in
  non local Contribution for L=            1  read in
    real space projection operators read in
  non local Contribution for L=            2  read in
    real space projection operators read in
  non local Contribution for L=            2  read in
    real space projection operators read in
  non local Contribution for L=            0  read in
    real space projection operators read in
  non local Contribution for L=            0  read in
    real space projection operators read in
    PAW grid and wavefunctions read in
 
   number of l-projection  operators is LMAX  =            6
   number of lm-projection operators is LMMAX =           18
 
 POTCAR:    PAW_PBE V_pv 07Sep2000                
   SHA256 =  1175d3c8cb4ffd1d150a520fa74fae5c3ec72c0849b5615a94a5372dd2cf07f7 V_pv/POTCAR           
   COPYR  = (c) Copyright 07Sep2000 Georg Kresse                                                    
   COPYR  = This file is part of the software VASP. Any use, copying, and all other rights are regul
   COPYR  = If you do not have a valid VASP license, you may not use, copy or distribute this file. 
   VRHFIN =V: p6 d4 s1                                                                              
   LEXCH  = PE                                                                                      
   EATOM  =  1321.6206 eV,   97.1364 Ry                                                             
                                                                                                    
   TITEL  = PAW_PBE V_pv 07Sep2000                                                                  
   LULTRA =        F    use ultrasoft PP ?                                                          
   IUNSCR =        1    unscreen: 0-lin 1-nonlin 2-no                                               
   RPACOR =    1.700    partial core radius                                                         
   POMASS =   50.941; ZVAL   =   11.000    mass and valenz                                          
   RCORE  =    2.300    outmost cutoff radius                                                       
   RWIGS  =    2.300; RWIGS  =    1.217    wigner-seitz radius (au A)                               
   ENMAX  =  263.673; ENMIN  =  197.755 eV                                                          
   RCLOC  =    1.779    cutoff for local pot                                                        
   LCOR   =        T    correct aug charges                                                         
   LPAW   =        T    paw PP                                                                      
   EAUG   =  598.473                                                                                
   DEXC   =    0.000                                                                                
   RMAX   =    2.359    core radius for proj-oper                                                   
   RAUG   =    1.300    factor for augmentation sphere                                              
   RDEP   =    2.430    radius for radial grids                                                     
   RDEPT  =    1.700    core radius for aug-charge                                                  
                                                                                                    
   Atomic configuration                                                                             
    8 entries                                                                                       
     n  l   j            E        occ.                                                              
     1  0  0.50     -5360.7193   2.0000                                                             
     2  0  0.50      -598.4546   2.0000                                                             
     2  1  1.50      -499.0155   6.0000                                                             
     3  0  0.50       -66.5711   2.0000                                                             
     3  1  1.50       -40.5282   6.0000                                                             
     3  2  2.50        -2.4291   4.0000                                                             
     4  0  0.50        -3.8743   1.0000                                                             
     4  3  2.50        -1.3606   0.0000                                                             
   Description                                                                                      
     l       E           TYP  RCUT    TYP  RCUT                                                     
     1    -40.5282431     23  2.000                                                                 
     1      5.4423304     23  2.000                                                                 
     2     -2.4290905     23  2.300                                                                 
     2     -1.0472488     23  2.300                                                                 
     0     -3.8742754     23  2.300                                                                 
     0     27.2116520     23  2.300                                                                 
  local pseudopotential read in
  partial core-charges read in
  partial kinetic energy density read in
  atomic valenz-charges read in
  non local Contribution for L=            1  read in
    real space projection operators read in
  non local Contribution for L=            1  read in
    real space projection operators read in
  non local Contribution for L=            2  read in
    real space projection operators read in
  non local Contribution for L=            2  read in
    real space projection operators read in
  non local Contribution for L=            0  read in
    real space projection operators read in
  non local Contribution for L=            0  read in
    real space projection operators read in
    PAW grid and wavefunctions read in
 
   number of l-projection  operators is LMAX  =            6
   number of lm-projection operators is LMMAX =           18
 
 POTCAR:    PAW_PBE W_sv 04Sep2015                
   SHA256 =  931c2d770f65867ef30f3db3421922900fc0890ebac5c3e12f63b6a2064023d7 W_sv/POTCAR           
   COPYR  = (c) Copyright 04Sep2015 Georg Kresse                                                    
   COPYR  = This file is part of the software VASP. Any use, copying, and all other rights are regul
   COPYR  = If you do not have a valid VASP license, you may not use, copy or distribute this file. 
   VRHFIN =W : 5p6s5d                                                                               
   LEXCH  = PE                                                                                      
   EATOM  =  1865.5791 eV,  137.1162 Ry                                                             
                                                                                                    
   TITEL  = PAW_PBE W_sv 04Sep2015                                                                  
   LULTRA =        F    use ultrasoft PP ?                                                          
   IUNSCR =        1    unscreen: 0-lin 1-nonlin 2-no                                               
   RPACOR =    2.330    partial core radius                                                         
   POMASS =  183.850; ZVAL   =   14.000    mass and valenz                                          
   RCORE  =    2.500    outmost cutoff radius                                                       
   RWIGS  =    2.750; RWIGS  =    1.455    wigner-seitz radius (au A)                               
   ENMAX  =  223.057; ENMIN  =  167.293 eV                                                          
   ICORE  =        3    local potential                                                             
   LCOR   =        T    correct aug charges                                                         
   LPAW   =        T    paw PP                                                                      
   EAUG   =  373.438                                                                                
   DEXC   =    0.000                                                                                
   RMAX   =    2.565    core radius for proj-oper                                                   
   RAUG   =    1.300    factor for augmentation sphere                                              
   RDEP   =    2.539    radius for radial grids                                                     
   RDEPT  =    2.126    core radius for aug-charge                                                  
                                                                                                    
   Atomic configuration                                                                             
   15 entries                                                                                       
     n  l   j            E        occ.                                                              
     1  0  0.50    -69465.5834   2.0000                                                             
     2  0  0.50    -11986.2640   2.0000                                                             
     2  1  1.50    -10479.8613   6.0000                                                             
     3  0  0.50     -2759.0756   2.0000                                                             
     3  1  1.50     -2313.1855   6.0000                                                             
     3  2  2.50     -1801.1183  10.0000                                                             
     4  0  0.50      -567.6789   2.0000                                                             
     4  1  1.50      -421.4692   6.0000                                                             
     4  2  2.50      -236.3471  10.0000                                                             
     4  3  3.50       -31.2665  14.0000                                                             
     5  0  0.50       -77.1084   2.0000                                                             
     6  0  0.50        -5.1438   1.0000                                                             
     5  1  1.50       -41.3856   6.0000                                                             
     5  2  2.50        -3.3185   5.0000                                                             
     5  3  2.50        -1.3606   0.0000                                                             
   Description                                                                                      
     l       E           TYP  RCUT    TYP  RCUT                                                     
     0    -77.1084470     23  2.100                                                                 
     0     -5.1437956     23  2.300                                                                 
     1    -41.3855615     23  2.500                                                                 
     1     -2.7211652     23  2.500                                                                 
     2     -3.3185025     23  2.500                                                                 
     2     -1.5965151     23  2.500                                                                 
     3     -1.3605826     23  2.500                                                                 
  local pseudopotential read in
  partial core-charges read in
  partial kinetic energy density read in
  kinetic energy density of atom read in
  atomic valenz-charges read in
  non local Contribution for L=            0  read in
    real space projection operators read in
  non local Contribution for L=            0  read in
    real space projection operators read in
  non local Contribution for L=            1  read in
    real space projection operators read in
  non local Contribution for L=            1  read in
    real space projection operators read in
  non local Contribution for L=            2  read in
    real space projection operators read in
  non local Contribution for L=            2  read in
    real space projection operators read in
    PAW grid and wavefunctions read in
 
   number of l-projection  operators is LMAX  =            6
   number of lm-projection operators is LMMAX =           18
 
 POTCAR:    PAW_PBE Zr_sv 04Jan2005               
   SHA256 =  25aed69cb10325f9d37c5c68912b61a17387d1f8e4f1d804860ffa10c8a4bf76 Zr_sv/POTCAR          
   COPYR  = (c) Copyright 04Jan2005 Georg Kresse                                                    
   COPYR  = This file is part of the software VASP. Any use, copying, and all other rights are regul
   COPYR  = If you do not have a valid VASP license, you may not use, copy or distribute this file. 
   VRHFIN =Zr: 4s4p5s4d                                                                             
   LEXCH  = PE                                                                                      
   EATOM  =  1284.2219 eV,   94.3876 Ry                                                             
                                                                                                    
   TITEL  = PAW_PBE Zr_sv 04Jan2005                                                                 
   LULTRA =        F    use ultrasoft PP ?                                                          
   IUNSCR =        1    unscreen: 0-lin 1-nonlin 2-no                                               
   RPACOR =    2.200    partial core radius                                                         
   POMASS =   91.224; ZVAL   =   12.000    mass and valenz                                          
   RCORE  =    2.500    outmost cutoff radius                                                       
   RWIGS  =    3.070; RWIGS  =    1.625    wigner-seitz radius (au A)                               
   ENMAX  =  229.898; ENMIN  =  172.424 eV                                                          
   ICORE  =        3    local potential                                                             
   LCOR   =        T    correct aug charges                                                         
   LPAW   =        T    paw PP                                                                      
   EAUG   =  461.257                                                                                
   DEXC   =    0.000                                                                                
   RMAX   =    2.561    core radius for proj-oper                                                   
   RAUG   =    1.300    factor for augmentation sphere                                              
   RDEP   =    2.597    radius for radial grids                                                     
   RDEPT  =    2.007    core radius for aug-charge                                                  
                                                                                                    
   Atomic configuration                                                                             
   11 entries                                                                                       
     n  l   j            E        occ.                                                              
     1  0  0.50    -17820.0161   2.0000                                                             
     2  0  0.50     -2467.0882   2.0000                                                             
     2  1  1.50     -2199.6095   6.0000                                                             
     3  0  0.50      -402.4863   2.0000                                                             
     3  1  1.50      -315.3675   6.0000                                                             
     3  2  2.50      -172.4472  10.0000                                                             
     4  0  0.50       -52.4146   2.0000                                                             
     5  0  0.50        -3.8421   1.0000                                                             
     4  1  1.50       -30.5054   6.0000                                                             
     4  2  2.50        -2.3341   3.0000                                                             
     4  3  2.50        -1.3606   0.0000                                                             
   Description                                                                                      
     l       E           TYP  RCUT    TYP  RCUT                                                     
     0    -52.4145962     23  2.200                                                                 
     0     -3.8421270     23  2.500                                                                 
     1    -30.5053914     23  2.200                                                                 
     1     20.4087390     23  2.200                                                                 
     2     -2.3340816     23  2.500                                                                 
     2     -0.6120942     23  2.500                                                                 
     3     -4.0817478     23  2.500                                                                 
  local pseudopotential read in
  partial core-charges read in
  partial kinetic energy density read in
  atomic valenz-charges read in
  non local Contribution for L=            0  read in
    real space projection operators read in
  non local Contribution for L=            0  read in
    real space projection operators read in
  non local Contribution for L=            1  read in
    real space projection operators read in
  non local Contribution for L=            1  read in
    real space projection operators read in
  non local Contribution for L=            2  read in
    real space projection operators read in
  non local Contribution for L=            2  read in
    real space projection operators read in
    PAW grid and wavefunctions read in
 
   number of l-projection  operators is LMAX  =            6
   number of lm-projection operators is LMMAX =           18
 
 -----------------------------------------------------------------------------
|                                                                             |
|               ----> ADVICE to this user running VASP <----                  |
|                                                                             |
|     You have a (more or less) 'large supercell' and for larger cells it     |
|     might be more efficient to use real-space projection operators.         |
|     Therefore, try LREAL= Auto in the INCAR file.                           |
|     Mind: For very accurate calculation, you might also keep the            |
|     reciprocal projection scheme (i.e. LREAL=.FALSE.).                      |
|                                                                             |
 -----------------------------------------------------------------------------

  PAW_PBE Cr_pv 02Aug2007               :
 energy of atom  1       EATOM=-1647.9177
 kinetic energy error for atom=    0.0057 (will be added to EATOM!!)
  PAW_PBE Ti_pv 07Sep2000               :
 energy of atom  2       EATOM=-1042.5995
 kinetic energy error for atom=    0.0019 (will be added to EATOM!!)
  PAW_PBE V_pv 07Sep2000                :
 energy of atom  3       EATOM=-1321.6206
 kinetic energy error for atom=    0.0054 (will be added to EATOM!!)
  PAW_PBE W_sv 04Sep2015                :
 energy of atom  4       EATOM=-1865.5791
 kinetic energy error for atom=    0.0026 (will be added to EATOM!!)
  PAW_PBE Zr_sv 04Jan2005               :
 energy of atom  5       EATOM=-1284.2219
 kinetic energy error for atom=    0.0043 (will be added to EATOM!!)
 
 
 POSCAR: Cr Ti V  W  Zr
  positions in cartesian coordinates
  No initial velocities read in
 exchange correlation table for  LEXCH =        8
   RHO(1)=    0.500       N(1)  =     2000
   RHO(2)=  100.500       N(2)  =     4000
 


--------------------------------------------------------------------------------------------------------


 ion  position               nearest neighbor table
   1  0.003  0.404  0.004-  21 2.51  17 2.54  25 2.55  49 2.55  24 2.58 107 2.60  44 2.60  10 2.62
                            48 2.91  45 2.98  26 3.00 111 3.04
   2  0.402  0.005  0.800-   3 2.51  81 2.55  75 2.55  80 2.55  59 2.57  39 2.57  54 2.60  56 2.62
                            84 2.93  55 2.96  38 2.97  60 2.98  76 3.01  74 3.05
   3  0.402  0.197  0.803-  63 2.48   2 2.51  84 2.52  85 2.55  60 2.56  38 2.58  43 2.58  66 2.58
                            81 2.95  39 2.96  42 2.99  59 3.00  88 3.02  64 3.05
   4  0.398  0.604  0.597-  98 2.51  51 2.51  46 2.52  92 2.54  74 2.58  69 2.58  70 2.59   9 2.80
                            50 3.02  97 3.02  93 3.04 119 3.08 118 3.09
   5  0.599  0.396  0.397- 114 2.54  61 2.55  87 2.56  86 2.58 120 2.59 119 2.60 109 2.65  91 2.66
                            82 3.02 110 3.03 121 3.04  65 3.04  92 3.04
   6  0.802  0.999  0.197-  99 2.52  13 2.55  77 2.56  94 2.59 122 2.62 104 2.62 100 2.63 105 2.92
                           115 2.95  18 2.96   7 3.02  76 3.04
   7  0.995  0.205  0.196-  18 2.56 104 2.58  21 2.62  99 2.63  17 2.64  41 2.65  46 2.72  13 2.75
                           103 2.92  12 2.94  22 2.95  45 2.99   6 3.02
   8  0.201  0.804  0.005-  57 2.64  30 2.65  52 2.65  35 2.67  71 2.75  55 2.76  48 2.76  29 2.78
                            36 2.93  34 2.94  72 3.03 123 3.03
   9  0.382  0.381  0.585- 118 2.59 119 2.67  63 2.68  87 2.70  66 2.73  93 2.78   4 2.80  62 2.88
                            42 2.91  46 2.95
  10  0.802  0.204  0.802- 111 2.55 102 2.56   1 2.62  20 2.66 103 2.67  84 2.69  79 2.69 106 2.70
                            24 2.93  17 2.94 107 2.97  83 3.00 101 3.05
  11  0.790  0.587  0.797- 111 2.53  29 2.59 112 2.64  87 2.64  93 2.66 114 2.75 124 2.76  30 2.79
                            88 2.89 110 3.04
  12  0.010  0.014  0.013-  41 2.50  13 2.57  35 2.59  17 2.63  16 2.69  30 2.70  99 2.70 124 2.76
                             7 2.94
  13  0.996  0.996  0.198-   6 2.55  12 2.57 115 2.58  18 2.59  31 2.61  36 2.64  14 2.68   7 2.75
                            30 2.89 122 2.99
  14  0.001  0.996  0.404-  18 2.47  37 2.53  32 2.55  15 2.56 100 2.56  42 2.62 122 2.63  13 2.68

  15  0.004  0.002  0.603-  14 2.56  19 2.57  16 2.58  33 2.60  43 2.60  38 2.62 101 2.62 116 2.64

  16  0.004  0.004  0.801-  20 2.55  15 2.58  40 2.59  39 2.63 117 2.67 102 2.69  12 2.69  34 2.70
                           124 3.01
  17  0.999  0.206  0.996-   1 2.54  20 2.56 102 2.59  45 2.60  12 2.63  40 2.64   7 2.64 103 2.65
                            10 2.94
  18  0.063  0.193  0.398-  14 2.47 118 2.53   7 2.56  13 2.59  42 2.69  46 2.81   6 2.96
  19  0.002  0.197  0.599- 106 2.55  15 2.57 100 2.59  42 2.60  20 2.60  47 2.61  23 2.65 118 3.00

  20  0.004  0.198  0.799-  16 2.55  17 2.56  24 2.59  19 2.60 101 2.60  44 2.61  43 2.62  10 2.66
                            47 2.91
  21  0.001  0.407  0.197-   1 2.51  26 2.54 108 2.59  50 2.60  45 2.61   7 2.62  22 2.63 103 2.64

  22  0.002  0.401  0.396-  46 2.59 109 2.59  27 2.61  51 2.62  21 2.63  23 2.65 104 2.67   7 2.95
                           118 3.02
  23  0.995  0.395  0.595- 105 2.52 110 2.55 118 2.58  28 2.64  19 2.65  22 2.65  24 2.70 123 2.76
                           106 2.91
  24  1.000  0.396  0.804-   1 2.58  20 2.59 111 2.60 106 2.62  29 2.66  47 2.67  48 2.69  23 2.70
                            10 2.93 123 3.11
  25  1.000  0.596  0.001-   1 2.55  26 2.59  48 2.62 111 2.63 112 2.65  29 2.66  30 2.67  52 2.68

  26  0.998  0.601  0.200-  21 2.54  31 2.57  27 2.58  25 2.59 113 2.59 107 2.61  49 2.63  53 2.66
                             1 3.00
  27  0.002  0.601  0.399-  50 2.58  26 2.58  28 2.60  32 2.60  22 2.61 121 2.63  54 2.65 108 2.65

  28  0.001  0.599  0.596-  27 2.60 109 2.61 114 2.63  33 2.64  23 2.64  29 2.65  51 2.66  55 2.66
                           121 3.01 123 3.10
  29  0.988  0.591  0.792- 110 2.51  11 2.59  34 2.61  28 2.65  24 2.66  25 2.66 123 2.74   8 2.78

  30  0.001  0.804  0.010-  36 2.51  31 2.54 115 2.60   8 2.65  25 2.67  12 2.70  34 2.79  11 2.79
                            13 2.89 124 3.08
  31  0.001  0.800  0.204-  30 2.54  32 2.57  26 2.57  52 2.57  13 2.61 122 2.63 112 2.67  37 2.68

  32  0.005  0.802  0.402-  14 2.55  53 2.55  31 2.57  27 2.60  33 2.60  38 2.61 116 2.67 113 2.70
                           121 3.06 122 3.06
  33  0.002  0.802  0.600-  34 2.58  15 2.60  32 2.60  54 2.61 117 2.61  39 2.63  28 2.64 121 2.65
                            55 2.92
  34  0.013  0.801  0.801-  55 2.44  33 2.58  29 2.61  35 2.63  16 2.70 124 2.74 114 2.78  30 2.79
                             8 2.94
  35  0.204  0.009  0.005-  40 2.54  61 2.57  12 2.59  36 2.60  39 2.63  34 2.63  56 2.64   8 2.67

  36  0.198  0.996  0.197-  30 2.51  52 2.57  62 2.58  41 2.60  35 2.60  57 2.63  37 2.63  13 2.64
                             8 2.93
  37  0.200  0.014  0.404-  14 2.53  63 2.62  36 2.63  38 2.63  58 2.67  31 2.68  53 2.73  62 2.82
                            42 2.87
  38  0.205  0.003  0.603-  42 2.53  54 2.56   3 2.58  59 2.58  39 2.60  32 2.61  15 2.62  37 2.63
                            63 2.90   2 2.97
  39  0.204  0.002  0.802-  55 2.48  43 2.56   2 2.57  60 2.59  38 2.60  16 2.63  33 2.63  35 2.63
                             3 2.96
  40  0.202  0.201  0.002-  35 2.54  65 2.56  16 2.59  44 2.59  43 2.60  60 2.64  17 2.64  41 2.74

  41  0.201  0.200  0.210-  12 2.50 119 2.56  36 2.60   7 2.65  61 2.68  45 2.68  40 2.74  62 2.91

  42  0.203  0.197  0.605-  38 2.53  43 2.57  66 2.59  19 2.60  14 2.62  63 2.62  18 2.69 118 2.72
                            37 2.87   9 2.91   3 2.99
  43  0.205  0.198  0.803-  47 2.51  39 2.56  42 2.57   3 2.58  40 2.60  15 2.60  64 2.61  20 2.62

  44  0.199  0.399  0.003-  48 2.53  47 2.56  45 2.57  40 2.59   1 2.60  20 2.61  68 2.63  64 2.63

  45  0.199  0.400  0.199-  44 2.57  46 2.59  17 2.60  21 2.61  49 2.62  65 2.63  69 2.64  41 2.68
                             1 2.98   7 2.99 119 2.99
  46  0.206  0.412  0.403-   4 2.52  50 2.57  22 2.59  45 2.59 119 2.64 118 2.68   7 2.72  18 2.81
                            51 2.89   9 2.95
  47  0.202  0.390  0.804-  43 2.51  44 2.56  66 2.58  19 2.61  24 2.67  67 2.67 118 2.69 123 2.78
                            20 2.91
  48  0.205  0.598  0.015-  49 2.42  44 2.53  72 2.59  25 2.62  67 2.64  24 2.69 123 2.75   8 2.76
                            68 2.87   1 2.91
  49  0.198  0.600  0.199-  48 2.42   1 2.55  50 2.56  45 2.62  52 2.62  26 2.63  68 2.63  73 2.64

  50  0.200  0.605  0.397-  51 2.53  49 2.56  46 2.57  27 2.58  53 2.59  69 2.59  21 2.60  74 2.61
                             4 3.02
  51  0.204  0.605  0.592-   4 2.51  50 2.53  54 2.59  22 2.62  28 2.66  75 2.66 118 2.69 123 2.81
                            46 2.89  74 2.92
  52  0.201  0.804  0.208-  53 2.54  31 2.57  36 2.57  58 2.58  49 2.62   8 2.65  72 2.66  25 2.68

  53  0.201  0.805  0.402-  52 2.54  32 2.55  59 2.58  54 2.58  50 2.59  73 2.61  26 2.66  37 2.73

  54  0.204  0.806  0.601-  55 2.54  38 2.56  53 2.58  51 2.59   2 2.60  74 2.60  33 2.61  27 2.65

  55  0.201  0.809  0.795-  34 2.44  39 2.48  54 2.54  75 2.60  56 2.62  28 2.66   8 2.76 123 2.76
                            33 2.92   2 2.96
  56  0.402  0.004  0.001-  82 2.58  60 2.58  76 2.60  71 2.60   2 2.62  55 2.62  35 2.64  57 2.65

  57  0.405  0.006  0.205- 120 2.55  61 2.58  58 2.62  72 2.63  36 2.63   8 2.64  56 2.65  77 2.70

  58  0.400  0.002  0.403-  62 2.55  83 2.58  52 2.58  73 2.59  59 2.61  57 2.62  37 2.67  78 2.68
                           120 3.05
  59  0.400  0.999  0.602-  63 2.49  74 2.57   2 2.57  38 2.58  53 2.58  84 2.59  79 2.60  58 2.61
                             3 3.00
  60  0.403  0.201  1.000-   3 2.56  81 2.57  86 2.57  56 2.58  64 2.59  39 2.59  61 2.63  40 2.64
                             2 2.98
  61  0.403  0.201  0.202-   5 2.55  35 2.57  57 2.58  65 2.62  82 2.63  60 2.63  41 2.68  62 2.69
                           119 2.98 120 3.00
  62  0.390  0.193  0.400-  87 2.55  58 2.55  36 2.58  61 2.69 119 2.70  63 2.72 120 2.75  37 2.82
                             9 2.88  41 2.91
  63  0.406  0.196  0.614-   3 2.48  59 2.49  88 2.52  83 2.60  37 2.62  42 2.62   9 2.68  62 2.72
                            84 2.80  38 2.90
  64  0.402  0.400  0.004-  65 2.54  90 2.55  60 2.59  67 2.59  66 2.59  85 2.60  43 2.61  44 2.63
                             3 3.05
  65  0.398  0.398  0.197-  64 2.54  40 2.56 119 2.56  86 2.60  61 2.62  68 2.62  45 2.63  91 2.63
                             5 3.04
  66  0.401  0.394  0.803-  89 2.57  47 2.58   3 2.58  88 2.58  42 2.59  64 2.59  70 2.69   9 2.73
                           118 3.11
  67  0.404  0.600  0.006-  89 2.55  68 2.57  95 2.57  64 2.59  48 2.64  47 2.67  71 2.73  70 2.76
                            90 2.91 123 3.03
  68  0.401  0.601  0.202-  67 2.57  90 2.57  69 2.58  96 2.60  65 2.62  44 2.63  49 2.63  72 2.64
                            48 2.87
  69  0.400  0.605  0.400-   4 2.58  97 2.58  68 2.58  50 2.59  73 2.60  91 2.63  45 2.64 119 2.65

  70  0.409  0.600  0.797-  93 2.37   4 2.59  94 2.60 118 2.66  66 2.69 123 2.71  67 2.76  75 2.76
                            98 2.88
  71  0.420  0.816  0.017-  77 2.44  94 2.51  72 2.58  56 2.60  67 2.73  75 2.73   8 2.75 123 2.76
                            95 2.88  76 2.89
  72  0.403  0.804  0.204-  73 2.57  78 2.58  71 2.58  95 2.59  48 2.59  57 2.63  68 2.64  52 2.66
                             8 3.03
  73  0.400  0.804  0.399-  79 2.56  72 2.57  58 2.59  74 2.60  69 2.60  96 2.61  53 2.61  49 2.64

  74  0.401  0.802  0.598-  59 2.57   4 2.58  97 2.59  80 2.59  73 2.60  54 2.60  75 2.61  50 2.61
                            98 2.90  51 2.92   2 3.05
  75  0.402  0.810  0.800-  98 2.51   2 2.55  76 2.55  55 2.60  74 2.61  51 2.66  71 2.73  70 2.76
                            80 2.91 123 3.08
  76  0.599  0.000  0.998-  99 2.55  75 2.55 104 2.56  81 2.59  80 2.59  56 2.60  94 2.61  77 2.62
                            71 2.89   2 3.01   6 3.04
  77  0.609  0.002  0.202-  71 2.44   6 2.56 105 2.60  95 2.60  76 2.62  78 2.63  82 2.63  57 2.70
                           120 3.03
  78  0.604  1.000  0.400-  96 2.58  72 2.58 106 2.60  79 2.60 100 2.62  77 2.63 120 2.63  58 2.68

  79  0.597  0.998  0.596-  97 2.55  73 2.56  83 2.57  78 2.60  59 2.60 101 2.64  80 2.64  10 2.69

  80  0.596  0.001  0.799-   2 2.55  74 2.59  76 2.59  98 2.59  84 2.61 102 2.62 103 2.63  79 2.64
                            75 2.91
  81  0.597  0.197  0.998-   2 2.55  60 2.57  82 2.58  84 2.58 103 2.58  85 2.58  76 2.59 108 2.62
                             3 2.95
  82  0.602  0.199  0.197- 104 2.54  81 2.58  56 2.58  86 2.59 109 2.61  61 2.63 120 2.63  77 2.63
                             5 3.02
  83  0.600  0.197  0.599-  79 2.57  58 2.58  87 2.59 111 2.60  63 2.60 120 2.64  84 2.65 106 2.70
                            10 3.00
  84  0.595  0.201  0.801-   3 2.52  88 2.58  81 2.58  59 2.59  80 2.61 107 2.62  83 2.65  10 2.69
                            63 2.80   2 2.93
  85  0.596  0.394  0.998-   3 2.55  81 2.58  64 2.60  89 2.61 113 2.62  88 2.62  86 2.63 107 2.64

  86  0.598  0.397  0.200-  60 2.57   5 2.58  82 2.59  65 2.60 121 2.62  85 2.63  90 2.64 108 2.64

  87  0.592  0.388  0.588-  62 2.55   5 2.56  83 2.59  11 2.64 110 2.66  92 2.68  88 2.69   9 2.70
                           120 2.93 119 3.00
  88  0.598  0.398  0.798-  63 2.52  84 2.58  66 2.58 112 2.61  85 2.62  93 2.62 111 2.63  87 2.69
                            11 2.89   3 3.02
  89  0.595  0.594  0.999-  67 2.55  66 2.57  90 2.58  93 2.60  85 2.61 112 2.62 122 2.65  94 2.69

  90  0.596  0.597  0.198-  64 2.55  68 2.57  89 2.58  91 2.59  95 2.63  86 2.64 113 2.64 116 2.66
                            67 2.91 121 3.04 122 3.05
  91  0.599  0.600  0.399-  90 2.59 117 2.61  96 2.62  92 2.62  69 2.63  65 2.63 121 2.64   5 2.66
                           119 2.97
  92  0.587  0.592  0.592- 119 2.51   4 2.54  91 2.62  87 2.68  93 2.68  97 2.70 114 2.73 124 2.76
                             5 3.04
  93  0.590  0.596  0.800-  70 2.37  89 2.60  88 2.62  11 2.66 115 2.66  92 2.68  98 2.69   9 2.78
                             4 3.04 124 3.18
  94  0.601  0.802  0.000-  71 2.51 115 2.57   6 2.59  70 2.60  76 2.61  98 2.65  95 2.65  89 2.69
                           122 3.02
  95  0.599  0.800  0.202-  67 2.57  72 2.59  96 2.59  77 2.60 122 2.62 100 2.63  90 2.63  94 2.65
                            71 2.88
  96  0.599  0.801  0.401-  97 2.56  78 2.58  95 2.59  68 2.60  73 2.61 116 2.62 101 2.62  91 2.62

  97  0.599  0.803  0.596-  79 2.55  96 2.56  69 2.58  74 2.59  98 2.63 102 2.65 117 2.65  92 2.70
                             4 3.02 124 3.08
  98  0.587  0.798  0.792-  75 2.51   4 2.51  80 2.59  97 2.63  94 2.65  99 2.68  93 2.69 124 2.78
                            70 2.88  74 2.90
  99  0.794  0.997  0.001-   6 2.52  76 2.55 103 2.62   7 2.63 115 2.65 102 2.68  98 2.68  12 2.70
                           124 3.07
 100  0.805  0.001  0.399-  14 2.56 105 2.57  19 2.59 116 2.60 101 2.62  78 2.62  95 2.63   6 2.63
                           122 2.98
 101  0.802  0.002  0.599- 117 2.55 106 2.57  20 2.60  15 2.62  96 2.62 100 2.62 102 2.63  79 2.64
                            10 3.05
 102  0.799  0.007  0.801-  10 2.56  17 2.59  80 2.62 101 2.63  97 2.65  99 2.68 124 2.68  16 2.69

 103  0.797  0.199  0.002- 104 2.53  81 2.58 107 2.60  99 2.62  80 2.63  21 2.64  17 2.65  10 2.67
                             7 2.92
 104  0.795  0.197  0.194- 103 2.53  82 2.54 105 2.55  76 2.56   7 2.58 108 2.59   6 2.62  22 2.67

 105  0.813  0.199  0.396-  23 2.52 104 2.55 100 2.57  77 2.60 106 2.64 109 2.64 120 2.77   6 2.92

 106  0.806  0.198  0.595-  19 2.55 101 2.57  78 2.60 110 2.61  24 2.62 105 2.64  83 2.70  10 2.70
                            23 2.91 120 3.02
 107  0.801  0.398  0.000- 112 2.55 108 2.58   1 2.60 103 2.60  26 2.61  84 2.62 111 2.63  85 2.64
                            10 2.97
 108  0.799  0.397  0.197- 107 2.58 113 2.59 104 2.59  21 2.59 109 2.60  81 2.62  86 2.64  27 2.65
                           121 3.03
 109  0.803  0.398  0.397-  22 2.59 108 2.60  82 2.61  28 2.61 110 2.62 121 2.64 105 2.64   5 2.65
                           120 3.01
 110  0.801  0.397  0.597-  29 2.51  23 2.55 120 2.58 114 2.60 106 2.61 109 2.62 111 2.64  87 2.66
                             5 3.03  11 3.04
 111  0.799  0.396  0.798-  11 2.53  10 2.55  83 2.60  24 2.60 107 2.63  25 2.63  88 2.63 110 2.64
                             1 3.04
 112  0.797  0.593  0.003- 113 2.53 107 2.55  88 2.61  89 2.62  11 2.64  25 2.65 115 2.66  31 2.67
                           122 3.02
 113  0.797  0.595  0.198- 112 2.53 121 2.58  26 2.59 108 2.59  85 2.62  90 2.64 122 2.66  32 2.70

 114  0.794  0.591  0.590-   5 2.54 121 2.57 110 2.60  28 2.63  92 2.73  11 2.75 117 2.76  34 2.78
                           124 3.10
 115  0.797  0.797  0.004- 122 2.54  94 2.57  13 2.58  30 2.60  99 2.65  93 2.66 112 2.66 124 2.74
                             6 2.95
 116  0.800  0.802  0.401- 117 2.48 100 2.60 122 2.61  96 2.62  15 2.64 121 2.64  90 2.66  32 2.67

 117  0.800  0.804  0.592- 116 2.48 101 2.55  91 2.61  33 2.61  97 2.65  16 2.67 124 2.70 114 2.76
                           121 3.02
 118  0.196  0.400  0.601-  18 2.53  23 2.58   9 2.59  70 2.66  46 2.68  47 2.69  51 2.69  42 2.72
                            19 3.00  22 3.02 123 3.02   4 3.09  66 3.11
 119  0.401  0.401  0.395-  92 2.51  41 2.56  65 2.56   5 2.60  46 2.64  69 2.65   9 2.67  62 2.70
                            91 2.97  61 2.98  45 2.99  87 3.00   4 3.08
 120  0.603  0.200  0.399-  57 2.55 110 2.58   5 2.59  82 2.63  78 2.63  83 2.64  62 2.75 105 2.77
                            87 2.93  61 3.00 109 3.01 106 3.02  77 3.03  58 3.05
 121  0.800  0.598  0.398- 114 2.57 113 2.58  86 2.62  27 2.63  91 2.64 109 2.64 116 2.64  33 2.65
                            28 3.01 117 3.02 108 3.03  90 3.04   5 3.04  32 3.06
 122  0.799  0.799  0.200- 115 2.54 116 2.61   6 2.62  95 2.62  31 2.63  14 2.63  89 2.65 113 2.66
                           100 2.98  13 2.99  94 3.02 112 3.02  90 3.05  32 3.06
 123  0.207  0.605  0.807-  70 2.71  29 2.74  48 2.75  23 2.76  55 2.76  71 2.76  47 2.78  51 2.81
                           118 3.02  67 3.03   8 3.03  75 3.08  28 3.10  24 3.11
 124  0.804  0.803  0.798- 102 2.68 117 2.70 115 2.74  34 2.74  12 2.76  92 2.76  11 2.76  98 2.78
                            16 3.01  99 3.07  97 3.08  30 3.08 114 3.10  93 3.18
 
  LATTYP: Found a triclinic cell.
 ALAT       =    36.9484934985
 B/A-ratio  =     0.3535186554
 C/A-ratio  =     0.5772698908
 COS(alpha) =     0.0002416466
 COS(beta)  =     0.2887267664
 COS(gamma) =     0.9428158987
  
  Lattice vectors:
  
 A1 = (  30.1710571640, -15.0866049150, -15.0762340640)
 A2 = (   7.5429280460,  -7.5406991980,  -7.5403885230)
 A3 = (  15.0799980970,  15.0841177710,  -0.0085907380)


Analysis of symmetry for initial positions (statically):
=====================================================================
 Subroutine PRICEL returns:
 Original cell was already a primitive cell.
 

 Routine SETGRP: Setting up the symmetry group for a 
 triclinic supercell.


 Subroutine GETGRP returns: Found  1 space group operations
 (whereof  1 operations were pure point group operations)
 out of a pool of  2 trial point group operations.


The static configuration has the point symmetry C_1 .


Analysis of symmetry for dynamics (positions and initial velocities):
=====================================================================
 Subroutine PRICEL returns:
 Original cell was already a primitive cell.
 

 Routine SETGRP: Setting up the symmetry group for a 
 triclinic supercell.


 Subroutine GETGRP returns: Found  1 space group operations
 (whereof  1 operations were pure point group operations)
 out of a pool of  2 trial point group operations.


The dynamic configuration has the point symmetry C_1 .


 Subroutine INISYM returns: Found  1 space group operations
 (whereof  1 operations are pure point group operations),
 and found     1 'primitive' translations


----------------------------------------------------------------------------------------

                                     Primitive cell                                     

  volume of cell :    1718.3948

  direct lattice vectors                    reciprocal lattice vectors
    -7.542928046  7.540699198  7.540388523     0.000002930  0.066329719  0.066289639
     7.547476001 -7.553831611  7.558065225     0.066270222  0.000080482  0.066212056
     7.537725071  7.548625092 -7.553522243     0.066313004  0.066294918  0.000037688

  length of vectors
    13.061981740 13.082397179 13.071141431     0.093776052  0.093679160  0.093767969

  position of ions in fractional coordinates (direct lattice)
     0.002539637  0.403853238  0.004133034
     0.401986254  0.004766222  0.800492242
     0.401876564  0.197299197  0.802712356
     0.398428650  0.604107928  0.597283466
     0.598923517  0.396192788  0.397255326
     0.802096859  0.999357542  0.196846106
     0.995180400  0.204732352  0.195965179
     0.201236055  0.803955487  0.004539080
     0.381870328  0.381087051  0.584686361
     0.802472898  0.203919680  0.801993490
     0.789914509  0.586791309  0.797250487
     0.010264015  0.014292064  0.012868832
     0.996261828  0.995777749  0.197618328
     0.000961570  0.996458831  0.404345331
     0.003770574  0.002187760  0.603128803
     0.004075786  0.004164785  0.801471226
     0.999369337  0.205671630  0.995960882
     0.063082980  0.193101478  0.397674574
     0.002413150  0.196650043  0.599423659
     0.003511953  0.198389751  0.799234313
     0.000749375  0.406704995  0.196691479
     0.001883996  0.401269818  0.396462660
     0.995456760  0.394993103  0.594829037
     0.999826298  0.396133647  0.803564547
     0.999518767  0.596305251  0.000965619
     0.997894438  0.601001231  0.199699984
     0.002152817  0.601255728  0.398660781
     0.000851707  0.598876371  0.596280613
     0.987909204  0.590855666  0.791648544
     0.000664858  0.803992036  0.010328631
     0.001391907  0.799861586  0.203747538
     0.005232537  0.802401979  0.402153029
     0.002378712  0.802213513  0.600313115
     0.013435469  0.800500335  0.800567233
     0.203635491  0.008843679  0.004521311
     0.198068438  0.996277245  0.197124114
     0.200237511  0.014450170  0.404447601
     0.204537582  0.003032805  0.602812149
     0.204347112  0.002029134  0.801549628
     0.201516292  0.201403315  0.001539749
     0.200664106  0.199774246  0.210070488
     0.202857438  0.196522091  0.605006583
     0.205114728  0.198465534  0.803208093
     0.199489087  0.399237424  0.002579950
     0.198578556  0.399966865  0.198876110
     0.205795471  0.412180011  0.403206758
     0.202143158  0.389826480  0.804360100
     0.204822929  0.597956005  0.015124725
     0.198298219  0.599850750  0.198557263
     0.199788847  0.604709602  0.396808276
     0.204490268  0.605157170  0.591705868
     0.200893480  0.804098232  0.207557710
     0.201423194  0.805239344  0.402261426
     0.203735314  0.806079699  0.600913881
     0.200840152  0.809459520  0.795338973
     0.402384591  0.003711328  0.000617806
     0.405047723  0.005783287  0.205166227
     0.399824726  0.002210699  0.402505254
     0.400179065  0.999248505  0.601577762
     0.402501381  0.200867284  0.999802056
     0.403284256  0.201312860  0.201653700
     0.390326673  0.192986583  0.399789642
     0.406244372  0.195767084  0.613786607
     0.401702876  0.399839474  0.003894683
     0.398240404  0.397864417  0.196618550
     0.400546288  0.394469585  0.803269162
     0.404409869  0.599776163  0.006111704
     0.401422380  0.600772353  0.202069616
     0.399569363  0.604786714  0.400447047
     0.409462629  0.600403005  0.797137043
     0.419728680  0.816438067  0.016646470
     0.403109147  0.803983344  0.203823870
     0.400082142  0.803564403  0.399388109
     0.400671609  0.802039221  0.598145369
     0.402073167  0.810015740  0.800464935
     0.599292710  0.000330832  0.997994059
     0.608928257  0.001769768  0.201739216
     0.603509376  0.999521505  0.400114516
     0.596943301  0.997806736  0.595981935
     0.595626040  0.000811747  0.798830903
     0.596951097  0.197140816  0.997821428
     0.602333366  0.199390226  0.197354544
     0.600298282  0.196648869  0.599039377
     0.595200034  0.200520841  0.801048691
     0.596471956  0.394276046  0.997540502
     0.597983376  0.396510437  0.199792716
     0.591814493  0.387889988  0.587781289
     0.597697397  0.397530297  0.798397133
     0.595206958  0.593924741  0.999110535
     0.595745000  0.596947922  0.198044044
     0.598966173  0.600127333  0.398620549
     0.586713257  0.592136870  0.592379932
     0.590468895  0.596009311  0.799745063
     0.601121308  0.801756434  0.000071939
     0.599346765  0.800240276  0.201962160
     0.599492473  0.801389976  0.400507706
     0.598548988  0.803234413  0.596341661
     0.586961016  0.797636990  0.791777175
     0.794160367  0.997073689  0.000691822
     0.804561468  0.000757373  0.399269405
     0.801878267  0.002145299  0.599443258
     0.798798682  0.006725241  0.800765792
     0.796667247  0.199103124  0.002361146
     0.794664183  0.196520587  0.194449961
     0.813195686  0.199000256  0.395731717
     0.806091894  0.198370373  0.594710936
     0.800528733  0.398230218  0.000001011
     0.799220406  0.396964800  0.196776839
     0.802625209  0.397741636  0.397184657
     0.801244783  0.396730042  0.596766429
     0.798736124  0.396362063  0.797932519
     0.796539837  0.592715341  0.003366781
     0.797352481  0.594786138  0.198239957
     0.794496104  0.591161495  0.589769421
     0.796975359  0.796630959  0.003662212
     0.800201558  0.801528725  0.400898671
     0.800397991  0.804477729  0.591806952
     0.196449801  0.400437760  0.600753183
     0.400766487  0.400974734  0.394540205
     0.602915159  0.200098943  0.398913951
     0.799861674  0.598446219  0.397714238
     0.798732476  0.799094965  0.199626746
     0.206706818  0.604718423  0.807367848
     0.803522428  0.802501696  0.798364163

  ion indices of the primitive-cell ions
   primitive index   ion index
                 1           1
                 2           2
                 3           3
                 4           4
                 5           5
                 6           6
                 7           7
                 8           8
                 9           9
                10          10
                11          11
                12          12
                13          13
                14          14
                15          15
                16          16
                17          17
                18          18
                19          19
                20          20
                21          21
                22          22
                23          23
                24          24
                25          25
                26          26
                27          27
                28          28
                29          29
                30          30
                31          31
                32          32
                33          33
                34          34
                35          35
                36          36
                37          37
                38          38
                39          39
                40          40
                41          41
                42          42
                43          43
                44          44
                45          45
                46          46
                47          47
                48          48
                49          49
                50          50
                51          51
                52          52
                53          53
                54          54
                55          55
                56          56
                57          57
                58          58
                59          59
                60          60
                61          61
                62          62
                63          63
                64          64
                65          65
                66          66
                67          67
                68          68
                69          69
                70          70
                71          71
                72          72
                73          73
                74          74
                75          75
                76          76
                77          77
                78          78
                79          79
                80          80
                81          81
                82          82
                83          83
                84          84
                85          85
                86          86
                87          87
                88          88
                89          89
                90          90
                91          91
                92          92
                93          93
                94          94
                95          95
                96          96
                97          97
                98          98
                99          99
               100         100
               101         101
               102         102
               103         103
               104         104
               105         105
               106         106
               107         107
               108         108
               109         109
               110         110
               111         111
               112         112
               113         113
               114         114
               115         115
               116         116
               117         117
               118         118
               119         119
               120         120
               121         121
               122         122
               123         123
               124         124

----------------------------------------------------------------------------------------

 
 
 KPOINTS: KPOINTS generated by db_to_vasp         

Automatic generation of k-mesh.
 Grid dimensions read from file:
 generate k-points for:    4    4    4

 Generating k-lattice:

  Cartesian coordinates                     Fractional coordinates (reciprocal lattice)
     0.000000732  0.016582430  0.016572410     0.250000000 -0.000000000 -0.000000000
     0.016567555  0.000020120  0.016553014    -0.000000000  0.250000000 -0.000000000
     0.016578251  0.016573730  0.000009422     0.000000000 -0.000000000  0.250000000

  Length of vectors
     0.023444013  0.023419790  0.023441992

  Shift w.r.t. Gamma in fractional coordinates (k-lattice)
     0.000000000  0.000000000  0.000000000

 
 Subroutine IBZKPT returns following result:
 ===========================================
 
 Found     36 irreducible k-points:
 
 Following reciprocal coordinates:
            Coordinates               Weight
  0.000000  0.000000  0.000000      1.000000
  0.250000  0.000000  0.000000      2.000000
  0.500000  0.000000  0.000000      1.000000
  0.000000  0.250000  0.000000      2.000000
  0.250000  0.250000  0.000000      2.000000
  0.500000  0.250000  0.000000      2.000000
 -0.250000  0.250000  0.000000      2.000000
  0.000000  0.500000  0.000000      1.000000
  0.250000  0.500000  0.000000      2.000000
  0.500000  0.500000  0.000000      1.000000
  0.000000  0.000000  0.250000      2.000000
  0.250000  0.000000  0.250000      2.000000
  0.500000  0.000000  0.250000      2.000000
 -0.250000  0.000000  0.250000      2.000000
  0.000000  0.250000  0.250000      2.000000
  0.250000  0.250000  0.250000      2.000000
  0.500000  0.250000  0.250000      2.000000
 -0.250000  0.250000  0.250000      2.000000
  0.000000  0.500000  0.250000      2.000000
  0.250000  0.500000  0.250000      2.000000
  0.500000  0.500000  0.250000      2.000000
 -0.250000  0.500000  0.250000      2.000000
  0.000000 -0.250000  0.250000      2.000000
  0.250000 -0.250000  0.250000      2.000000
  0.500000 -0.250000  0.250000      2.000000
 -0.250000 -0.250000  0.250000      2.000000
  0.000000  0.000000  0.500000      1.000000
  0.250000  0.000000  0.500000      2.000000
  0.500000  0.000000  0.500000      1.000000
  0.000000  0.250000  0.500000      2.000000
  0.250000  0.250000  0.500000      2.000000
  0.500000  0.250000  0.500000      2.000000
 -0.250000  0.250000  0.500000      2.000000
  0.000000  0.500000  0.500000      1.000000
  0.250000  0.500000  0.500000      2.000000
  0.500000  0.500000  0.500000      1.000000
 
 Following cartesian coordinates:
            Coordinates               Weight
  0.000000  0.000000  0.000000      1.000000
  0.000001  0.016582  0.016572      2.000000
  0.000001  0.033165  0.033145      1.000000
  0.016568  0.000020  0.016553      2.000000
  0.016568  0.016603  0.033125      2.000000
  0.016569  0.033185  0.049698      2.000000
  0.016567 -0.016562 -0.000019      2.000000
  0.033135  0.000040  0.033106      1.000000
  0.033136  0.016623  0.049678      2.000000
  0.033137  0.033205  0.066251      1.000000
  0.016578  0.016574  0.000009      2.000000
  0.016579  0.033156  0.016582      2.000000
  0.016580  0.049739  0.033154      2.000000
  0.016578 -0.000009 -0.016563      2.000000
  0.033146  0.016594  0.016562      2.000000
  0.033147  0.033176  0.033135      2.000000
  0.033147  0.049759  0.049707      2.000000
  0.033145  0.000011 -0.000010      2.000000
  0.049713  0.016614  0.033115      2.000000
  0.049714  0.033196  0.049688      2.000000
  0.049715  0.049779  0.066260      2.000000
  0.049713  0.000032  0.016543      2.000000
  0.000011  0.016554 -0.016544      2.000000
  0.000011  0.033136  0.000029      2.000000
  0.000012  0.049718  0.016601      2.000000
  0.000010 -0.000029 -0.033116      2.000000
  0.033157  0.033147  0.000019      1.000000
  0.033157  0.049730  0.016591      2.000000
  0.033158  0.066312  0.033164      1.000000
  0.049724  0.033168  0.016572      2.000000
  0.049725  0.049750  0.033144      2.000000
  0.049726  0.066332  0.049717      2.000000
  0.049723  0.016585 -0.000001      2.000000
  0.066292  0.033188  0.033125      1.000000
  0.066292  0.049770  0.049697      2.000000
  0.066293  0.066353  0.066270      1.000000
 


--------------------------------------------------------------------------------------------------------




 Dimension of arrays:
   k-points           NKPTS =     36   k-points in BZ     NKDIM =     36   number of bands    NBANDS=    832
   number of dos      NEDOS =    301   number of ions     NIONS =    124
   non local maximal  LDIM  =      6   non local SUM 2l+1 LMDIM =     18
   total plane-waves  NPLWV = 941192
   max r-space proj   IRMAX =      1   max aug-charges    IRDMAX=  31460
   dimension x,y,z NGX =    98 NGY =   98 NGZ =   98
   dimension x,y,z NGXF=   196 NGYF=  196 NGZF=  196
   support grid    NGXF=   196 NGYF=  196 NGZF=  196
   ions per type =               6   5 106   5   2
   NGX,Y,Z   is equivalent  to a cutoff of  12.47, 12.45, 12.46 a.u.
   NGXF,Y,Z  is equivalent  to a cutoff of  24.95, 24.91, 24.93 a.u.

 SYSTEM =  unknown system                          
 POSCAR =  Cr Ti V  W  Zr                          

 Startparameter for this run:
   NWRITE =      2    write-flag & timer
   PREC   = accura    normal or accurate (medium, high low for compatibility)
   ISTART =      0    job   : 0-new  1-cont  2-samecut
   ICHARG =      2    charge: 1-file 2-atom 10-const
   ISPIN  =      1    spin polarized calculation?
   LNONCOLLINEAR =      F non collinear calculations
   LSORBIT =      F    spin-orbit coupling
   INIWAV =      1    electr: 0-lowe 1-rand  2-diag
   LASPH  =      F    aspherical Exc in radial PAW
 Electronic Relaxation 1
   ENCUT  =  520.0 eV  38.22 Ry    6.18 a.u.  24.29 24.32 24.30*2*pi/ulx,y,z
   ENINI  =  520.0     initial cutoff
   ENAUG  =  598.5 eV  augmentation charge cutoff
   NELM   =    100;   NELMIN=  2; NELMDL= -5     # of ELM steps 
   EDIFF  = 0.1E-05   stopping-criterion for ELM
   LREAL  =      F    real-space projection
   NLSPLINE    = F    spline interpolate recip. space projectors
   LCOMPAT=      F    compatible to vasp.4.4
   GGA_COMPAT  = T    GGA compatible to vasp.4.4-vasp.4.6
   LMAXPAW     = -100 max onsite density
   LMAXMIX     =    2 max onsite mixed and CHGCAR
   VOSKOWN=      0    Vosko Wilk Nusair interpolation
   ROPT   =    0.00000   0.00000   0.00000   0.00000
   ROPT   =    0.00000
 Ionic relaxation
   EDIFFG = -.1E-01   stopping-criterion for IOM
   NSW    =     -1    number of steps for IOM
   NBLOCK =      1;   KBLOCK =      1    inner block; outer block 
   IBRION =      2    ionic relax: 0-MD 1-quasi-New 2-CG
   NFREE  =      1    steps in history (QN), initial steepest desc. (CG)
   ISIF   =      2    stress and relaxation
   IWAVPR =     11    prediction:  0-non 1-charg 2-wave 3-comb
   ISYM   =      2    0-nonsym 1-usesym 2-fastsym
   LCORR  =      T    Harris-Foulkes like correction to forces

   POTIM  = 0.2000    time-step for ionic-motion
   TEIN   =    0.0    initial temperature
   TEBEG  =    0.0;   TEEND  =   0.0 temperature during run
   SMASS  =  -3.00    Nose mass-parameter (am)
   estimated Nose-frequenzy (Omega)   =  0.10E-29 period in steps = 0.31E+47 mass=  -0.390E-26a.u.
   SCALEE = 1.0000    scale energy and forces
   NPACO  =    256;   APACO  = 10.0  distance and # of slots for P.C.
   PSTRESS=    0.0 pullay stress

  Mass of Ions in am
   POMASS =  52.00 47.88 50.94183.85 91.22
  Ionic Valenz
   ZVAL   =  12.00 10.00 11.00 14.00 12.00
  Atomic Wigner-Seitz radii
   RWIGS  =  -1.00 -1.00 -1.00 -1.00 -1.00
  virtual crystal weights 
   VCA    =   1.00  1.00  1.00  1.00  1.00
   NELECT =    1382.0000    total number of electrons
   NUPDOWN=      -1.0000    fix difference up-down

 DOS related values:
   EMIN   =  10.00;   EMAX   =-10.00  energy-range for DOS
   EFERMI =   0.00;   METHOD = LEGACY      
   ISMEAR =     1;   SIGMA  =   0.20  broadening in eV -4-tet -1-fermi 0-gaus

 Electronic relaxation 2 (details)
   IALGO  =     38    algorithm
   LDIAG  =      T    sub-space diagonalisation (order eigenvalues)
   LSUBROT=      F    optimize rotation matrix (better conditioning)
   TURBO    =      0    0=normal 1=particle mesh
   IRESTART =      0    0=no restart 2=restart with 2 vectors
   NREBOOT  =      0    no. of reboots
   NMIN     =      0    reboot dimension
   EREF     =   0.00    reference energy to select bands
   IMIX   =      4    mixing-type and parameters
     AMIX     =   0.40;   BMIX     =  1.00
     AMIX_MAG =   1.60;   BMIX_MAG =  1.00
     AMIN     =   0.10
     WC   =   100.;   INIMIX=   1;  MIXPRE=   1;  MAXMIX= -45

 Intra band minimization:
   WEIMIN = 0.0010     energy-eigenvalue tresh-hold
   EBREAK =  0.30E-09  absolut break condition
   DEPER  =   0.30     relativ break condition  

   TIME   =   0.40     timestep for ELM

  volume/ion in A,a.u.               =      13.86        93.52
  Fermi-wavevector in a.u.,A,eV,Ry     =   1.522427  2.876970 31.535373  2.317785
  Thomas-Fermi vector in A             =   2.631008
 
 Write flags
   LWAVE        =      F    write WAVECAR
   LDOWNSAMPLE  =      F    k-point downsampling of WAVECAR
   LCHARG       =      T    write CHGCAR
   LVTOT        =      F    write LOCPOT, total local potential
   LVHAR        =      F    write LOCPOT, Hartree potential only
   LELF         =      F    write electronic localiz. function (ELF)
   LORBIT       =     11    0 simple, 1 ext, 2 COOP (PROOUT), +10 PAW based schemes


 Dipole corrections
   LMONO  =      F    monopole corrections only (constant potential shift)
   LDIPOL =      F    correct potential (dipole corrections)
   IDIPOL =      0    1-x, 2-y, 3-z, 4-all directions 
   EPSILON=  1.0000000 bulk dielectric constant

 Exchange correlation treatment:
   GGA     =    PE    GGA type
   LEXCH   =     8    internal setting for exchange type
   LIBXC   =     F    Libxc                    
   VOSKOWN =     0    Vosko Wilk Nusair interpolation
   LHFCALC =     F    Hartree Fock is set to
   LHFONE  =     F    Hartree Fock one center treatment
   AEXX    =    0.0000 exact exchange contribution

 Linear response parameters
   LEPSILON=     F    determine dielectric tensor
   LRPA    =     F    only Hartree local field effects (RPA)
   LNABLA  =     F    use nabla operator in PAW spheres
   LVEL    =     F    velocity operator in full k-point grid
   CSHIFT  =0.1000    complex shift for real part using Kramers Kronig
   OMEGAMAX=  -1.0    maximum frequency
   DEG_THRESHOLD= 0.2000000E-02 threshold for treating states as degnerate
   RTIME   =   -0.100 relaxation time in fs
  (WPLASMAI=    0.000 imaginary part of plasma frequency in eV, 0.658/RTIME)
   DFIELD  = 0.0000000 0.0000000 0.0000000 field for delta impulse in time
 
  Optional k-point grid parameters
   LKPOINTS_OPT  =     F    use optional k-point grid
   KPOINTS_OPT_MODE=     1    mode for optional k-point grid
 
 Orbital magnetization related:
   ORBITALMAG=     F  switch on orbital magnetization
   LCHIMAG   =     F  perturbation theory with respect to B field
   DQ        =  0.001000  dq finite difference perturbation B field
   LLRAUG    =     F  two centre corrections for induced B field
   LBONE     =     F  B-component reconstruction in AE one-centre
   LVGVCALC  =     T  calculate vGv susceptibility
   LVGVAPPL  =     F  apply vGv susceptibility instead of pGv for G=0

 Random number generation:
   RANDOM_GENERATOR = DEFAULT
   PCG_SEED         = not used


--------------------------------------------------------------------------------------------------------


 conjugate gradient relaxation of ions
 charge density and potential will be updated during run
 non-spin polarized calculation
 Variant of blocked Davidson
 Davidson routine will perform the subspace rotation
 perform sub-space diagonalisation
    after iterative eigenvector-optimisation
 modified Broyden-mixing scheme, WC =      100.0
 initial mixing is a Kerker type mixing with AMIX =  0.4000 and BMIX =      1.0000
 Hartree-type preconditioning will be used
 using additional bands           141
 reciprocal scheme for non local part
 use partial core corrections
 calculate Harris-corrections to forces 
   (improved forces if not selfconsistent)
 use gradient corrections 
 use of overlap-Matrix (Vanderbilt PP)
 Methfessel and Paxton  Order N= 1 SIGMA  =   0.20


--------------------------------------------------------------------------------------------------------


  energy-cutoff  :      520.00
  volume of cell :     1718.39
      direct lattice vectors                 reciprocal lattice vectors
    -7.542928046  7.540699198  7.540388523     0.000002930  0.066329719  0.066289639
     7.547476001 -7.553831611  7.558065225     0.066270222  0.000080482  0.066212056
     7.537725071  7.548625092 -7.553522243     0.066313004  0.066294918  0.000037688

  length of vectors
    13.061981740 13.082397179 13.071141431     0.093776052  0.093679160  0.093767969


 
 k-points in units of 2pi/SCALE and weight: KPOINTS generated by db_to_vasp         
   0.00000000  0.00000000  0.00000000       0.016
   0.00000073  0.01658243  0.01657241       0.031
   0.00000146  0.03316486  0.03314482       0.016
   0.01656756  0.00002012  0.01655301       0.031
   0.01656829  0.01660255  0.03312542       0.031
   0.01656902  0.03318498  0.04969783       0.031
   0.01656682 -0.01656231 -0.00001940       0.031
   0.03313511  0.00004024  0.03310603       0.016
   0.03313584  0.01662267  0.04967844       0.031
   0.03313658  0.03320510  0.06625085       0.016
   0.01657825  0.01657373  0.00000942       0.031
   0.01657898  0.03315616  0.01658183       0.031
   0.01657972  0.04973859  0.03315424       0.031
   0.01657752 -0.00000870 -0.01656299       0.031
   0.03314581  0.01659385  0.01656244       0.031
   0.03314654  0.03317628  0.03313485       0.031
   0.03314727  0.04975871  0.04970726       0.031
   0.03314507  0.00001142 -0.00000997       0.031
   0.04971336  0.01661397  0.03311545       0.031
   0.04971409  0.03319640  0.04968786       0.031
   0.04971483  0.04977883  0.06626027       0.031
   0.04971263  0.00003154  0.01654304       0.031
   0.00001070  0.01655361 -0.01654359       0.031
   0.00001143  0.03313604  0.00002882       0.031
   0.00001216  0.04971847  0.01660123       0.031
   0.00000996 -0.00002882 -0.03311600       0.031
   0.03315650  0.03314746  0.00001884       0.016
   0.03315723  0.04972989  0.01659125       0.031
   0.03315797  0.06631232  0.03316366       0.016
   0.04972406  0.03316758  0.01657186       0.031
   0.04972479  0.04975001  0.03314427       0.031
   0.04972552  0.06633244  0.04971668       0.031
   0.04972332  0.01658515 -0.00000055       0.031
   0.06629161  0.03318770  0.03312487       0.016
   0.06629235  0.04977013  0.04969728       0.031
   0.06629308  0.06635256  0.06626969       0.016
 
 k-points in reciprocal lattice and weights: KPOINTS generated by db_to_vasp         
   0.00000000  0.00000000  0.00000000       0.016
   0.25000000  0.00000000  0.00000000       0.031
   0.50000000  0.00000000  0.00000000       0.016
   0.00000000  0.25000000  0.00000000       0.031
   0.25000000  0.25000000  0.00000000       0.031
   0.50000000  0.25000000  0.00000000       0.031
  -0.25000000  0.25000000  0.00000000       0.031
   0.00000000  0.50000000  0.00000000       0.016
   0.25000000  0.50000000  0.00000000       0.031
   0.50000000  0.50000000  0.00000000       0.016
   0.00000000  0.00000000  0.25000000       0.031
   0.25000000  0.00000000  0.25000000       0.031
   0.50000000  0.00000000  0.25000000       0.031
  -0.25000000  0.00000000  0.25000000       0.031
   0.00000000  0.25000000  0.25000000       0.031
   0.25000000  0.25000000  0.25000000       0.031
   0.50000000  0.25000000  0.25000000       0.031
  -0.25000000  0.25000000  0.25000000       0.031
   0.00000000  0.50000000  0.25000000       0.031
   0.25000000  0.50000000  0.25000000       0.031
   0.50000000  0.50000000  0.25000000       0.031
  -0.25000000  0.50000000  0.25000000       0.031
   0.00000000 -0.25000000  0.25000000       0.031
   0.25000000 -0.25000000  0.25000000       0.031
   0.50000000 -0.25000000  0.25000000       0.031
  -0.25000000 -0.25000000  0.25000000       0.031
   0.00000000  0.00000000  0.50000000       0.016
   0.25000000  0.00000000  0.50000000       0.031
   0.50000000  0.00000000  0.50000000       0.016
   0.00000000  0.25000000  0.50000000       0.031
   0.25000000  0.25000000  0.50000000       0.031
   0.50000000  0.25000000  0.50000000       0.031
  -0.25000000  0.25000000  0.50000000       0.031
   0.00000000  0.50000000  0.50000000       0.016
   0.25000000  0.50000000  0.50000000       0.031
   0.50000000  0.50000000  0.50000000       0.016
 
 position of ions in fractional coordinates (direct lattice) 
   0.00253964  0.40385324  0.00413303
   0.40198625  0.00476622  0.80049224
   0.40187656  0.19729920  0.80271236
   0.39842865  0.60410793  0.59728347
   0.59892352  0.39619279  0.39725533
   0.80209686  0.99935754  0.19684611
   0.99518040  0.20473235  0.19596518
   0.20123605  0.80395549  0.00453908
   0.38187033  0.38108705  0.58468636
   0.80247290  0.20391968  0.80199349
   0.78991451  0.58679131  0.79725049
   0.01026402  0.01429206  0.01286883
   0.99626183  0.99577775  0.19761833
   0.00096157  0.99645883  0.40434533
   0.00377057  0.00218776  0.60312880
   0.00407579  0.00416478  0.80147123
   0.99936934  0.20567163  0.99596088
   0.06308298  0.19310148  0.39767457
   0.00241315  0.19665004  0.59942366
   0.00351195  0.19838975  0.79923431
   0.00074938  0.40670500  0.19669148
   0.00188400  0.40126982  0.39646266
   0.99545676  0.39499310  0.59482904
   0.99982630  0.39613365  0.80356455
   0.99951877  0.59630525  0.00096562
   0.99789444  0.60100123  0.19969998
   0.00215282  0.60125573  0.39866078
   0.00085171  0.59887637  0.59628061
   0.98790920  0.59085567  0.79164854
   0.00066486  0.80399204  0.01032863
   0.00139191  0.79986159  0.20374754
   0.00523254  0.80240198  0.40215303
   0.00237871  0.80221351  0.60031311
   0.01343547  0.80050034  0.80056723
   0.20363549  0.00884368  0.00452131
   0.19806844  0.99627725  0.19712411
   0.20023751  0.01445017  0.40444760
   0.20453758  0.00303280  0.60281215
   0.20434711  0.00202913  0.80154963
   0.20151629  0.20140332  0.00153975
   0.20066411  0.19977425  0.21007049
   0.20285744  0.19652209  0.60500658
   0.20511473  0.19846553  0.80320809
   0.19948909  0.39923742  0.00257995
   0.19857856  0.39996687  0.19887611
   0.20579547  0.41218001  0.40320676
   0.20214316  0.38982648  0.80436010
   0.20482293  0.59795600  0.01512472
   0.19829822  0.59985075  0.19855726
   0.19978885  0.60470960  0.39680828
   0.20449027  0.60515717  0.59170587
   0.20089348  0.80409823  0.20755771
   0.20142319  0.80523934  0.40226143
   0.20373531  0.80607970  0.60091388
   0.20084015  0.80945952  0.79533897
   0.40238459  0.00371133  0.00061781
   0.40504772  0.00578329  0.20516623
   0.39982473  0.00221070  0.40250525
   0.40017907  0.99924851  0.60157776
   0.40250138  0.20086728  0.99980206
   0.40328426  0.20131286  0.20165370
   0.39032667  0.19298658  0.39978964
   0.40624437  0.19576708  0.61378661
   0.40170288  0.39983947  0.00389468
   0.39824040  0.39786442  0.19661855
   0.40054629  0.39446958  0.80326916
   0.40440987  0.59977616  0.00611170
   0.40142238  0.60077235  0.20206962
   0.39956936  0.60478671  0.40044705
   0.40946263  0.60040301  0.79713704
   0.41972868  0.81643807  0.01664647
   0.40310915  0.80398334  0.20382387
   0.40008214  0.80356440  0.39938811
   0.40067161  0.80203922  0.59814537
   0.40207317  0.81001574  0.80046494
   0.59929271  0.00033083  0.99799406
   0.60892826  0.00176977  0.20173922
   0.60350938  0.99952151  0.40011452
   0.59694330  0.99780674  0.59598194
   0.59562604  0.00081175  0.79883090
   0.59695110  0.19714082  0.99782143
   0.60233337  0.19939023  0.19735454
   0.60029828  0.19664887  0.59903938
[...]
   -.197E+03 -.126E+03 0.235E+02   0.197E+03 0.126E+03 -.238E+02   -.508E+00 -.336E+00 0.332E+00   0.292E-02 0.498E-02 0.682E-04
   0.152E+03 0.699E+02 -.110E+03   -.153E+03 -.695E+02 0.110E+03   0.504E+00 -.311E+00 0.510E+00   -.179E-02 -.437E-02 0.590E-03
   -.466E+02 -.637E+01 -.137E+02   0.466E+02 0.628E+01 0.138E+02   -.338E-01 0.869E-01 -.456E-01   0.318E-02 0.445E-04 -.384E-03
   -.906E+02 -.118E+03 0.820E+02   0.899E+02 0.118E+03 -.815E+02   0.636E+00 0.690E+00 -.524E+00   0.358E-02 0.378E-02 0.578E-03
   0.455E+02 0.128E+02 0.276E+02   -.451E+02 -.126E+02 -.277E+02   -.418E+00 -.939E-01 0.173E+00   0.224E-02 -.362E-02 -.184E-02
   -.396E+02 -.257E+02 0.226E+03   0.390E+02 0.256E+02 -.226E+03   0.513E+00 0.327E-01 -.601E+00   0.712E-03 -.313E-02 0.266E-02
   0.508E+00 -.568E+02 0.388E+02   -.471E+00 0.568E+02 -.388E+02   -.279E-01 0.213E-01 -.624E-01   -.155E-02 0.378E-02 0.292E-02
   -.497E+02 -.558E+02 -.126E+02   0.497E+02 0.557E+02 0.129E+02   -.400E-01 0.740E-01 -.263E+00   0.263E-02 0.321E-02 -.919E-03
   0.261E+02 0.299E+01 -.444E+02   -.261E+02 -.298E+01 0.443E+02   -.757E-01 -.114E-01 0.751E-01   0.169E-02 -.262E-02 -.172E-02
   -.727E+02 0.101E+02 0.249E+02   0.726E+02 -.103E+02 -.249E+02   0.354E-01 0.198E+00 0.401E-01   -.694E-03 -.175E-02 -.747E-03
   0.337E+02 -.837E+02 0.237E+02   -.333E+02 0.834E+02 -.237E+02   -.462E+00 0.295E+00 -.360E-01   -.834E-03 -.537E-03 0.268E-02
 -----------------------------------------------------------------------------------------------
   -.479E+00 -.493E+00 0.866E-01   0.118E-11 0.568E-13 0.320E-12   0.481E+00 0.488E+00 -.800E-01   0.201E-02 0.455E-02 -.573E-02
 
 
 POSITION                                       TOTAL-FORCE (eV/Angst)
 -----------------------------------------------------------------------------------
      3.06007     -3.00029      3.04028         0.000084      0.003876     -0.000178
      3.03771      9.03787     -2.97938         0.000179      0.007110     -0.002959
      4.50841      7.59944     -1.54180         0.001512      0.004167     -0.005272
      6.05633      2.94977      3.05860        -0.013083     -0.003695      0.007889
      1.46702      4.52226      4.50989        -0.001431      0.003674      0.009643
      2.97624     -0.01469     12.11445        -0.029245      0.002739      0.000277
     -4.48423      7.43711      7.57120        -0.046711      0.004447      0.043072
      4.58414     -4.52122      7.55946        -0.011107     -0.000453     -0.003127
      4.40303      4.41448      1.34329        -0.057747     -0.022896     -0.040310
      1.53129     10.56478      1.53432         0.002185      0.005594     -0.000683
      4.47998      7.54213      4.36922         0.000341      0.004214      0.008924
      0.12745      0.06658      0.08821        -0.004811      0.017872     -0.009731
      1.49047      1.48232     13.54564        -0.002808      0.039924      0.031649
     10.56134     -4.46758      4.48432        -0.020461      0.018497      0.023436
      4.53429      4.56470     -4.51078         0.002479     -0.002268      0.009719
      6.04196      6.04928     -5.99172         0.001573      0.008435     -0.002723
      1.52141     13.50047      1.56710        -0.000273      0.004535      0.004587
      3.97916      2.01893     -1.06870         0.375784     -0.347100     -0.361416
      5.98430      3.05756     -3.02327         0.027704      0.041052     -0.020149
      7.49526      4.56100     -4.51111         0.003725      0.009307     -0.006118
      4.54655     -1.58178      1.59384        -0.001655      0.002927      0.002600
      6.00279     -0.02417      0.05234         0.017996     -0.018297      0.040768
     -0.04380      9.01287      5.99846        -0.066444     -0.006838     -0.010730
      1.50524     10.61287      4.46334        -0.007852     -0.001207      0.002647
     -3.03142      3.03997     12.03638        -0.006984      0.000256     -0.003331
     -1.48572      4.49242     10.55848         0.004514     -0.000970      0.005022
      7.52672     -1.51621      1.54927         0.005414     -0.005573      0.009430
      9.00818     -0.01629      0.02875        -0.006557      0.000474     -0.002566
      2.97497      8.96216      5.93521        -0.010185     -0.002039      0.001128
      6.14095     -5.99024      6.00362         0.009152     -0.010343     -0.006707
      7.56223     -4.49351      4.51689        -0.004006     -0.011922      0.013066
      9.04796     -2.98605      3.06639         0.007468     -0.007416      0.019162
     10.56174     -1.51031      1.54664         0.001520     -0.005732      0.008672
     11.97487      0.09765      0.10444        -0.007625     -0.006771     -0.003058
     -1.43518      1.50288      1.56818        -0.006612     -0.004260      0.004840
      7.51123     -4.54412      7.53446        -0.051777      0.010832      0.009159
      1.64730      4.45380     -1.43592         0.027738     -0.026266      0.059311
      3.02391      6.06985     -2.98814         0.007277      0.007007      0.014689
      4.51580      7.57619     -4.49833         0.000251      0.001846     -0.003702
      0.01167      0.00983      3.03010         0.002129      0.007733      0.001088
      1.57765      1.58983      1.43622         0.010076      0.052227     -0.010178
      4.51348      4.61216     -1.55498        -0.024815     -0.008562      0.024171
      6.00511      6.11065     -3.02039        -0.001946      0.004260      0.002934
      1.52795     -1.49201      4.50220         0.001261      0.004754     -0.000110
      3.01995     -0.02262      3.01812         0.008850      0.012627      0.010438
      4.59788      1.48196      1.62143        -0.005526      0.022054     -0.010872
      7.48050      4.65143     -1.60518        -0.002410      0.007949      0.000269
      3.08210     -2.85818      5.94959        -0.007114     -0.000095      0.004232
      4.52828     -1.53703      4.52915        -0.000412     -0.001705      0.001493
      6.04807     -0.06597      3.07962        -0.001742      0.002767      0.001006
      7.48507      1.43731      1.64629        -0.005489     -0.005222      0.003719
      6.11810     -2.99237      6.02445        -0.005960      0.006814     -0.004234
      7.59034     -1.52725      4.56637         0.004449     -0.005100      0.005618
      9.07663     -0.01661      3.08963         0.002352     -0.006802      0.003342
     10.58950      1.40367      1.62475        -0.007250      0.000746     -0.000465
     -3.00249      3.01089      3.05752        -0.007064      0.002703      0.003130
     -1.46511      4.55938      1.54820        -0.012895      0.000195      0.000611
      0.03481      6.03662     -0.00879        -0.005741      0.004026     -0.002837
      9.05781      0.01056      6.02586        -0.004290      0.004616     -0.006311
      6.01624      9.06496     -2.99884        -0.003864      0.002262      0.001746
     -0.00253      3.04257      3.03926        -0.004405     -0.003361      0.003990
      1.52586      4.50341      1.38200        -0.009299      0.009243     -0.000936
      3.03983      6.21782     -0.09339        -0.008654      0.037177      0.010617
      0.01712      0.03820      6.02159         0.000680      0.003088      0.000273
      1.48103      1.48181      4.52481        -0.004223     -0.004138      0.004619
      6.01078      6.10422     -0.06581        -0.019951      0.010155     -0.002949
      1.52243     -1.43494      7.53639        -0.002760     -0.002241      0.004567
      3.02956      0.01422      6.04122         0.000078     -0.001880      0.006905
      4.56915      1.46740      4.55914         0.005404     -0.006753      0.001676
      7.45158      4.56958      1.60420        -0.006456      0.001743      0.000028
      3.12154     -2.87653      9.20987        -0.006136     -0.005287     -0.002116
      4.56379     -1.49484      7.57657        -0.003952      0.001288      0.002647
      6.05757     -0.03826      6.07338         0.000214      0.000568     -0.001401
      7.53979      1.47805      4.56498         0.003683     -0.001400      0.000260
      9.11445      2.95560      3.10761        -0.003785      0.003244     -0.003949
      3.00468     12.05007     -3.01697         0.001590      0.013881      0.008299
     -3.05909      6.10123      3.08109        -0.000961      0.000858     -0.001655
      6.00759      0.02098      9.08287        -0.001186     -0.001513     -0.001136
      7.52057      1.46295      7.54091         0.000402      0.001903     -0.000942
      1.53473     10.51538     -1.53660        -0.001648      0.008496     -0.002554
      4.50646     10.54444     -1.54582        -0.000923      0.011153      0.000895
     -1.55086      4.52561      4.55811        -0.003064      0.001056      0.003994
      1.47159      7.56314      1.48791        -0.000973      0.011464      0.003080
      3.06196      9.02034     -0.04715         0.000045      0.013382     -0.003030
      5.99583      9.04958     -0.05735         0.000811      0.005575     -0.001289
     -0.01191      3.02220      5.99674         0.000602      0.002040      0.003587
      2.89411      5.96958      2.95439         0.006158      0.008316      0.000794
      4.51006      7.53098      1.48072         0.000613      0.005805      0.003355
      7.52405      7.54378      1.43021        -0.009230     -0.005383     -0.002775
      1.50459      1.47805      7.50799        -0.003995     -0.000298      0.008332
      3.01618      2.99240      6.04125         0.000485      0.000234      0.010132
      4.50880      4.42298      4.42490         0.000939      0.000940     -0.004354
      6.07276      5.98737      2.91615        -0.016934     -0.006700     -0.007302
      1.51756     -1.52292     10.59187        -0.008289      0.000070     -0.001304
      3.04130     -0.00085      9.04205         0.000799      0.002892      0.005496
      4.54546      1.49031      7.55212        -0.004500      0.000660      0.008521
      6.04264      2.94754      6.07971        -0.002171     -0.004345      0.006380
      7.56094      4.37771      4.47380        -0.006280     -0.003326     -0.005417
      1.54031     -1.53798     13.51900        -0.008179      0.013131     -0.001522
     -3.05345      9.07517      3.05654         0.006043     -0.003356      0.046692
     -1.51388     10.55549      1.53478        -0.007732     -0.001686     -0.002150
      0.06143     12.01738      0.02548         0.002960      0.005193      0.001120
     -4.48868      4.52126      7.49418         0.009029      0.007544     -0.010865
     -3.04515      5.97567      6.00861         0.003234      0.060458      0.001372
     -1.64901      7.61608      4.64670         0.038476     -0.032758     -0.053119
     -0.10033      9.06929      3.08538         0.002131     -0.001580     -0.006818
     -3.03269      3.02839      9.04614         0.003540      0.006345      0.002065
     -1.54913      4.51347      7.54036        -0.005658      0.006905     -0.000689
     -0.05833      6.04608      6.05812         0.002055     -0.002782      0.001717
      1.44884      7.54988      4.53252         0.000100      0.002857      0.004955
      2.98132      9.05227      2.99131        -0.002012      0.002709      0.002555
     -1.50936      1.55461     10.46057        -0.001053     -0.004879     -0.000812
     -0.03096      3.01612      9.01037         0.003974     -0.001167      0.006546
      2.91447      5.97747      6.00401        -0.002217      0.000176      0.004030
      0.02863      0.01978     12.00283        -0.013110      0.006938      0.001852
      3.03552      3.00570      9.06364         0.004054     -0.007183      0.005615
      4.49531      4.42600      7.64538        -0.001024     -0.000925      0.007280
      6.06880      2.99139     -0.02996         0.006809      0.039910      0.034089
      2.97733      2.97140      3.07236        -0.004074      0.006510      0.025888
     -0.03060      6.04614      3.04537         0.006854     -0.005984     -0.005500
      1.48132      4.51315      7.55022         0.000231     -0.000877      0.007618
      1.51110      1.49368     10.55448        -0.002111     -0.003283      0.009031
      9.09064      3.08529      0.03068        -0.004266     -0.016294     -0.014207
      6.01380      6.02371      6.09377        -0.002907     -0.007507      0.002199
 -----------------------------------------------------------------------------------
    total drift:                                0.003698     -0.000035      0.000876


--------------------------------------------------------------------------------------------------------



  FREE ENERGIE OF THE ION-ELECTRON SYSTEM (eV)
  ---------------------------------------------------
  free  energy   TOTEN  =     -1122.21967169 eV

  energy  without entropy=    -1122.19010576  energy(sigma->0) =    -1122.20981638
 


--------------------------------------------------------------------------------------------------------


    POTLOK:  cpu time      0.2113: real time      0.1008


--------------------------------------------------------------------------------------------------------




--------------------------------------------------------------------------------------------------------


     LOOP+:  cpu time   3964.4289: real time   3961.8163
    4ORBIT:  cpu time      0.0000: real time      0.0000



 total charge

# of ion       s       p       d       tot
------------------------------------------
    1        0.420   6.316   4.210  10.947
    2        0.420   6.329   4.185  10.935
    3        0.425   6.330   4.216  10.972
    4        0.412   6.312   4.212  10.935
    5        0.410   6.324   4.216  10.950
    6        0.408   6.313   4.168  10.889
    7        0.377   6.291   2.167   8.835
    8        0.356   6.287   2.099   8.741
    9        0.345   6.283   2.109   8.736
   10        0.367   6.303   2.157   8.827
   11        0.363   6.280   2.167   8.809
   12        0.354   6.219   3.067   9.641
   13        0.359   6.232   3.038   9.630
   14        0.372   6.243   3.111   9.726
   15        0.359   6.240   3.059   9.657
   16        0.350   6.229   3.034   9.613
   17        0.355   6.228   3.068   9.651
   18        0.328   6.180   3.046   9.555
   19        0.348   6.230   3.040   9.619
   20        0.360   6.236   3.071   9.667
   21        0.360   6.236   3.074   9.670
   22        0.345   6.229   3.007   9.580
   23        0.357   6.223   3.098   9.677
   24        0.349   6.227   3.024   9.600
   25        0.349   6.227   3.026   9.602
   26        0.358   6.240   3.066   9.663
   27        0.355   6.244   3.059   9.658
   28        0.347   6.231   3.029   9.607
   29        0.351   6.213   3.072   9.635
   30        0.349   6.216   3.050   9.615
   31        0.356   6.238   3.080   9.674
   32        0.349   6.237   3.062   9.648
   33        0.352   6.237   3.058   9.648
   34        0.350   6.211   3.070   9.631
   35        0.354   6.225   3.069   9.649
   36        0.366   6.228   3.089   9.683
   37        0.338   6.215   2.998   9.550
   38        0.359   6.245   3.059   9.664
   39        0.358   6.241   3.072   9.671
   40        0.354   6.237   3.049   9.639
   41        0.341   6.215   3.047   9.603
   42        0.363   6.244   3.054   9.662
   43        0.360   6.243   3.076   9.679
   44        0.358   6.238   3.068   9.664
   45        0.351   6.237   3.045   9.634
   46        0.360   6.241   3.057   9.658
   47        0.355   6.228   3.081   9.664
   48        0.358   6.220   3.103   9.681
   49        0.359   6.239   3.085   9.683
   50        0.360   6.238   3.086   9.683
   51        0.355   6.234   3.062   9.651
   52        0.354   6.230   3.066   9.649
   53        0.355   6.238   3.056   9.650
   54        0.358   6.242   3.057   9.657
   55        0.360   6.223   3.124   9.707
   56        0.352   6.235   3.039   9.626
   57        0.354   6.237   3.071   9.662
   58        0.352   6.235   3.053   9.641
   59        0.361   6.237   3.093   9.690
   60        0.357   6.245   3.055   9.657
   61        0.348   6.241   3.032   9.621
   62        0.348   6.218   3.042   9.609
   63        0.373   6.244   3.079   9.695
   64        0.360   6.242   3.073   9.674
   65        0.356   6.239   3.095   9.691
   66        0.353   6.238   3.045   9.636
   67        0.351   6.227   3.042   9.621
   68        0.357   6.241   3.048   9.647
   69        0.355   6.244   3.055   9.654
   70        0.352   6.224   3.096   9.672
   71        0.358   6.224   3.088   9.670
   72        0.354   6.230   3.063   9.647
   73        0.357   6.242   3.056   9.656
   74        0.358   6.245   3.056   9.658
   75        0.352   6.233   3.047   9.632
   76        0.361   6.241   3.080   9.682
   77        0.354   6.242   3.067   9.663
   78        0.354   6.238   3.063   9.654
   79        0.356   6.232   3.065   9.653
   80        0.356   6.240   3.049   9.645
   81        0.360   6.244   3.074   9.679
   82        0.356   6.241   3.085   9.682
   83        0.353   6.233   3.072   9.658
   84        0.358   6.242   3.055   9.655
   85        0.357   6.244   3.035   9.636
   86        0.354   6.245   3.052   9.651
   87        0.346   6.230   3.039   9.615
   88        0.356   6.231   3.065   9.652
   89        0.355   6.241   3.069   9.665
   90        0.350   6.242   3.051   9.644
   91        0.347   6.242   3.038   9.626
   92        0.349   6.226   3.069   9.644
   93        0.350   6.220   3.080   9.651
   94        0.351   6.236   3.047   9.634
   95        0.356   6.243   3.065   9.664
   96        0.357   6.240   3.057   9.655
   97        0.353   6.230   3.058   9.641
   98        0.354   6.231   3.054   9.640
   99        0.352   6.227   3.046   9.625
  100        0.352   6.230   3.060   9.642
  101        0.356   6.235   3.055   9.645
  102        0.351   6.218   3.075   9.644
  103        0.357   6.236   3.056   9.650
  104        0.363   6.228   3.108   9.699
  105        0.341   6.219   3.037   9.596
  106        0.351   6.235   3.044   9.630
  107        0.356   6.237   3.055   9.648
  108        0.353   6.240   3.046   9.640
  109        0.349   6.246   3.042   9.637
  110        0.356   6.234   3.097   9.686
  111        0.356   6.226   3.085   9.667
  112        0.352   6.232   3.057   9.641
  113        0.354   6.246   3.083   9.683
  114        0.345   6.231   3.018   9.594
  115        0.354   6.226   3.105   9.685
  116        0.354   6.248   3.080   9.682
  117        0.352   6.222   3.087   9.661
  118        2.456   6.247   3.480  12.184
  119        2.460   6.257   3.500  12.218
  120        2.443   6.274   3.417  12.134
  121        2.446   6.272   3.457  12.174
  122        2.446   6.274   3.443  12.164
  123        2.259   5.974   1.876  10.108
  124        2.262   5.967   1.909  10.138
--------------------------------------------------
tot         58.621 773.372 381.5521213.545
 

 total amount of memory used by VASP MPI-rank0  7396245. kBytes
=======================================================================

   base      :      30000. kBytes
   nonl-proj :    1292066. kBytes
   fftplans  :      67629. kBytes
   grid      :     189621. kBytes
   one-center:       1928. kBytes
   wavefun   :    5815001. kBytes
 
  
  
 General timing and accounting informations for this job:
 ========================================================
  
                  Total CPU time used (sec):     4084.507
                            User time (sec):     3341.797
                          System time (sec):      742.711
                         Elapsed time (sec):     4081.314
  
                   Maximum memory used (kb):     9717332.
                   Average memory used (kb):          N/A
  
                          Minor page faults:     12376476
                          Major page faults:           12
                 Voluntary context switches:       741848
