 vasp.6.4.2 20Jul23 (build Sep 20 2024 16:56:05) complex                         
 executed on              LinuxNV date 2025.02.03  23:47:36
 running    4 mpi-ranks, with    8 threads/rank, on    1 nodes
 distrk:  each k-point on    4 cores,    1 groups
 distr:  one band on NCORE=   1 cores,    4 groups
 OpenACC runtime initialized ...    4 GPUs detected


--------------------------------------------------------------------------------------------------------


 INCAR:
   PREC = Accurate
   ENCUT = 520
   EDIFF = 1e-06
   ISMEAR = 1
   SIGMA = 0.2
   NSW = 0
   IBRION = -1
   LWAVE = .FALSE.
   LCHARG = .TRUE.
   LREAL = .FALSE.
   ALGO = Normal

 POTCAR:    PAW_PBE Cr_pv 02Aug2007               
 POTCAR:    PAW_PBE Ti_pv 07Sep2000               
 POTCAR:    PAW_PBE V_pv 07Sep2000                
 POTCAR:    PAW_PBE W_sv 04Sep2015                
 POTCAR:    PAW_PBE Zr_sv 04Jan2005               
 POTCAR:    PAW_PBE Cr_pv 02Aug2007               
   SHA256 =  c9a7df34d3cdbacf1090e328ef39c0b420964e11c23f63548d1ac9dd218cdba0 Cr_pv/POTCAR          
   COPYR  = (c) Copyright 02Aug2007 Georg Kresse                                                    
   COPYR  = This file is part of the software VASP. Any use, copying, and all other rights are regul
   COPYR  = If you do not have a valid VASP license, you may not use, copy or distribute this file. 
   VRHFIN =Cr : p6d5s1                                                                              
   LEXCH  = PE                                                                                      
   EATOM  =  1647.9177 eV,  121.1185 Ry                                                             
                                                                                                    
   TITEL  = PAW_PBE Cr_pv 02Aug2007                                                                 
   LULTRA =        F    use ultrasoft PP ?                                                          
   IUNSCR =        1    unscreen: 0-lin 1-nonlin 2-no                                               
   RPACOR =    2.080    partial core radius                                                         
   POMASS =   51.996; ZVAL   =   12.000    mass and valenz                                          
   RCORE  =    2.300    outmost cutoff radius                                                       
   RWIGS  =    2.500; RWIGS  =    1.323    wigner-seitz radius (au A)                               
   ENMAX  =  265.681; ENMIN  =  199.261 eV                                                          
   ICORE  =        3    local potential                                                             
   LCOR   =        T    correct aug charges                                                         
   LPAW   =        T    paw PP                                                                      
   EAUG   =  519.424                                                                                
   DEXC   =    0.000                                                                                
   RMAX   =    2.356    core radius for proj-oper                                                   
   RAUG   =    1.300    factor for augmentation sphere                                              
   RDEP   =    2.447    radius for radial grids                                                     
   RDEPT  =    1.882    core radius for aug-charge                                                  
                                                                                                    
   Atomic configuration                                                                             
    8 entries                                                                                       
     n  l   j            E        occ.                                                              
     1  0  0.50     -5880.4963   2.0000                                                             
     2  0  0.50      -667.0865   2.0000                                                             
     2  1  1.50      -560.6250   6.0000                                                             
     3  0  0.50       -73.9860   2.0000                                                             
     3  1  1.50       -45.4378   6.0000                                                             
     3  2  2.50        -2.9137   5.0000                                                             
     4  0  0.50        -4.0071   1.0000                                                             
     4  3  2.50        -1.3606   0.0000                                                             
   Description                                                                                      
     l       E           TYP  RCUT    TYP  RCUT                                                     
     1    -45.4377911     23  2.000                                                                 
     1      1.3605826     23  2.000                                                                 
     2     -2.9136672     23  2.300                                                                 
     2     -4.2742498     23  2.300                                                                 
     0     -4.0071320     23  2.300                                                                 
     0      9.4498803     23  2.300                                                                 
     3      2.7211652     23  2.300                                                                 
  local pseudopotential read in
  partial core-charges read in
  partial kinetic energy density read in
  atomic valenz-charges read in
  non local Contribution for L=            1  read in
    real space projection operators read in
  non local Contribution for L=            1  read in
    real space projection operators read in
  non local Contribution for L=            2  read in
    real space projection operators read in
  non local Contribution for L=            2  read in
    real space projection operators read in
  non local Contribution for L=            0  read in
    real space projection operators read in
  non local Contribution for L=            0  read in
    real space projection operators read in
    PAW grid and wavefunctions read in
 
   number of l-projection  operators is LMAX  =            6
   number of lm-projection operators is LMMAX =           18
 
 POTCAR:    PAW_PBE Ti_pv 07Sep2000               
   SHA256 =  f757a1b2c6d082f4c628fa3d987464a8763bf92e53844ac0500b0e2ddc9ce5c0 Ti_pv/POTCAR          
   COPYR  = (c) Copyright 07Sep2000 Georg Kresse                                                    
   COPYR  = This file is part of the software VASP. Any use, copying, and all other rights are regul
   COPYR  = If you do not have a valid VASP license, you may not use, copy or distribute this file. 
   VRHFIN =Ti: d3 s1                                                                                
   LEXCH  = PE                                                                                      
   EATOM  =  1042.5995 eV,   76.6289 Ry                                                             
                                                                                                    
   TITEL  = PAW_PBE Ti_pv 07Sep2000                                                                 
   LULTRA =        F    use ultrasoft PP ?                                                          
   IUNSCR =        1    unscreen: 0-lin 1-nonlin 2-no                                               
   RPACOR =    2.200    partial core radius                                                         
   POMASS =   47.880; ZVAL   =   10.000    mass and valenz                                          
   RCORE  =    2.500    outmost cutoff radius                                                       
   RWIGS  =    2.500; RWIGS  =    1.323    wigner-seitz radius (au A)                               
   ENMAX  =  222.335; ENMIN  =  166.751 eV                                                          
   RCLOC  =    1.701    cutoff for local pot                                                        
   LCOR   =        T    correct aug charges                                                         
   LPAW   =        T    paw PP                                                                      
   EAUG   =  482.848                                                                                
   DEXC   =    0.000                                                                                
   RMAX   =    2.564    core radius for proj-oper                                                   
   RAUG   =    1.300    factor for augmentation sphere                                              
   RDEP   =    2.538    radius for radial grids                                                     
   RDEPT  =    1.952    core radius for aug-charge                                                  
                                                                                                    
   Atomic configuration                                                                             
    8 entries                                                                                       
     n  l   j            E        occ.                                                              
     1  0  0.50     -4865.3608   2.0000                                                             
     2  0  0.50      -533.1368   2.0000                                                             
     2  1  1.50      -440.5031   6.0000                                                             
     3  0  0.50       -59.3186   2.0000                                                             
     3  1  1.50       -35.7012   6.0000                                                             
     3  2  2.50        -1.9157   3.0000                                                             
     4  0  0.50        -3.7291   1.0000                                                             
     4  3  2.50        -1.3606   0.0000                                                             
   Description                                                                                      
     l       E           TYP  RCUT    TYP  RCUT                                                     
     1    -35.7012140     23  2.300                                                                 
     1     -1.3605826     23  2.300                                                                 
     2     -1.9156996     23  2.500                                                                 
     2     -0.4063033     23  2.500                                                                 
     0     -3.7290856     23  2.500                                                                 
     0     20.4087390     23  2.500                                                                 
  local pseudopotential read in
  partial core-charges read in
  partial kinetic energy density read in
  atomic valenz-charges read in
  non local Contribution for L=            1  read in
    real space projection operators read in
  non local Contribution for L=            1  read in
    real space projection operators read in
  non local Contribution for L=            2  read in
    real space projection operators read in
  non local Contribution for L=            2  read in
    real space projection operators read in
  non local Contribution for L=            0  read in
    real space projection operators read in
  non local Contribution for L=            0  read in
    real space projection operators read in
    PAW grid and wavefunctions read in
 
   number of l-projection  operators is LMAX  =            6
   number of lm-projection operators is LMMAX =           18
 
 POTCAR:    PAW_PBE V_pv 07Sep2000                
   SHA256 =  1175d3c8cb4ffd1d150a520fa74fae5c3ec72c0849b5615a94a5372dd2cf07f7 V_pv/POTCAR           
   COPYR  = (c) Copyright 07Sep2000 Georg Kresse                                                    
   COPYR  = This file is part of the software VASP. Any use, copying, and all other rights are regul
   COPYR  = If you do not have a valid VASP license, you may not use, copy or distribute this file. 
   VRHFIN =V: p6 d4 s1                                                                              
   LEXCH  = PE                                                                                      
   EATOM  =  1321.6206 eV,   97.1364 Ry                                                             
                                                                                                    
   TITEL  = PAW_PBE V_pv 07Sep2000                                                                  
   LULTRA =        F    use ultrasoft PP ?                                                          
   IUNSCR =        1    unscreen: 0-lin 1-nonlin 2-no                                               
   RPACOR =    1.700    partial core radius                                                         
   POMASS =   50.941; ZVAL   =   11.000    mass and valenz                                          
   RCORE  =    2.300    outmost cutoff radius                                                       
   RWIGS  =    2.300; RWIGS  =    1.217    wigner-seitz radius (au A)                               
   ENMAX  =  263.673; ENMIN  =  197.755 eV                                                          
   RCLOC  =    1.779    cutoff for local pot                                                        
   LCOR   =        T    correct aug charges                                                         
   LPAW   =        T    paw PP                                                                      
   EAUG   =  598.473                                                                                
   DEXC   =    0.000                                                                                
   RMAX   =    2.359    core radius for proj-oper                                                   
   RAUG   =    1.300    factor for augmentation sphere                                              
   RDEP   =    2.430    radius for radial grids                                                     
   RDEPT  =    1.700    core radius for aug-charge                                                  
                                                                                                    
   Atomic configuration                                                                             
    8 entries                                                                                       
     n  l   j            E        occ.                                                              
     1  0  0.50     -5360.7193   2.0000                                                             
     2  0  0.50      -598.4546   2.0000                                                             
     2  1  1.50      -499.0155   6.0000                                                             
     3  0  0.50       -66.5711   2.0000                                                             
     3  1  1.50       -40.5282   6.0000                                                             
     3  2  2.50        -2.4291   4.0000                                                             
     4  0  0.50        -3.8743   1.0000                                                             
     4  3  2.50        -1.3606   0.0000                                                             
   Description                                                                                      
     l       E           TYP  RCUT    TYP  RCUT                                                     
     1    -40.5282431     23  2.000                                                                 
     1      5.4423304     23  2.000                                                                 
     2     -2.4290905     23  2.300                                                                 
     2     -1.0472488     23  2.300                                                                 
     0     -3.8742754     23  2.300                                                                 
     0     27.2116520     23  2.300                                                                 
  local pseudopotential read in
  partial core-charges read in
  partial kinetic energy density read in
  atomic valenz-charges read in
  non local Contribution for L=            1  read in
    real space projection operators read in
  non local Contribution for L=            1  read in
    real space projection operators read in
  non local Contribution for L=            2  read in
    real space projection operators read in
  non local Contribution for L=            2  read in
    real space projection operators read in
  non local Contribution for L=            0  read in
    real space projection operators read in
  non local Contribution for L=            0  read in
    real space projection operators read in
    PAW grid and wavefunctions read in
 
   number of l-projection  operators is LMAX  =            6
   number of lm-projection operators is LMMAX =           18
 
 POTCAR:    PAW_PBE W_sv 04Sep2015                
   SHA256 =  931c2d770f65867ef30f3db3421922900fc0890ebac5c3e12f63b6a2064023d7 W_sv/POTCAR           
   COPYR  = (c) Copyright 04Sep2015 Georg Kresse                                                    
   COPYR  = This file is part of the software VASP. Any use, copying, and all other rights are regul
   COPYR  = If you do not have a valid VASP license, you may not use, copy or distribute this file. 
   VRHFIN =W : 5p6s5d                                                                               
   LEXCH  = PE                                                                                      
   EATOM  =  1865.5791 eV,  137.1162 Ry                                                             
                                                                                                    
   TITEL  = PAW_PBE W_sv 04Sep2015                                                                  
   LULTRA =        F    use ultrasoft PP ?                                                          
   IUNSCR =        1    unscreen: 0-lin 1-nonlin 2-no                                               
   RPACOR =    2.330    partial core radius                                                         
   POMASS =  183.850; ZVAL   =   14.000    mass and valenz                                          
   RCORE  =    2.500    outmost cutoff radius                                                       
   RWIGS  =    2.750; RWIGS  =    1.455    wigner-seitz radius (au A)                               
   ENMAX  =  223.057; ENMIN  =  167.293 eV                                                          
   ICORE  =        3    local potential                                                             
   LCOR   =        T    correct aug charges                                                         
   LPAW   =        T    paw PP                                                                      
   EAUG   =  373.438                                                                                
   DEXC   =    0.000                                                                                
   RMAX   =    2.565    core radius for proj-oper                                                   
   RAUG   =    1.300    factor for augmentation sphere                                              
   RDEP   =    2.539    radius for radial grids                                                     
   RDEPT  =    2.126    core radius for aug-charge                                                  
                                                                                                    
   Atomic configuration                                                                             
   15 entries                                                                                       
     n  l   j            E        occ.                                                              
     1  0  0.50    -69465.5834   2.0000                                                             
     2  0  0.50    -11986.2640   2.0000                                                             
     2  1  1.50    -10479.8613   6.0000                                                             
     3  0  0.50     -2759.0756   2.0000                                                             
     3  1  1.50     -2313.1855   6.0000                                                             
     3  2  2.50     -1801.1183  10.0000                                                             
     4  0  0.50      -567.6789   2.0000                                                             
     4  1  1.50      -421.4692   6.0000                                                             
     4  2  2.50      -236.3471  10.0000                                                             
     4  3  3.50       -31.2665  14.0000                                                             
     5  0  0.50       -77.1084   2.0000                                                             
     6  0  0.50        -5.1438   1.0000                                                             
     5  1  1.50       -41.3856   6.0000                                                             
     5  2  2.50        -3.3185   5.0000                                                             
     5  3  2.50        -1.3606   0.0000                                                             
   Description                                                                                      
     l       E           TYP  RCUT    TYP  RCUT                                                     
     0    -77.1084470     23  2.100                                                                 
     0     -5.1437956     23  2.300                                                                 
     1    -41.3855615     23  2.500                                                                 
     1     -2.7211652     23  2.500                                                                 
     2     -3.3185025     23  2.500                                                                 
     2     -1.5965151     23  2.500                                                                 
     3     -1.3605826     23  2.500                                                                 
  local pseudopotential read in
  partial core-charges read in
  partial kinetic energy density read in
  kinetic energy density of atom read in
  atomic valenz-charges read in
  non local Contribution for L=            0  read in
    real space projection operators read in
  non local Contribution for L=            0  read in
    real space projection operators read in
  non local Contribution for L=            1  read in
    real space projection operators read in
  non local Contribution for L=            1  read in
    real space projection operators read in
  non local Contribution for L=            2  read in
    real space projection operators read in
  non local Contribution for L=            2  read in
    real space projection operators read in
    PAW grid and wavefunctions read in
 
   number of l-projection  operators is LMAX  =            6
   number of lm-projection operators is LMMAX =           18
 
 POTCAR:    PAW_PBE Zr_sv 04Jan2005               
   SHA256 =  25aed69cb10325f9d37c5c68912b61a17387d1f8e4f1d804860ffa10c8a4bf76 Zr_sv/POTCAR          
   COPYR  = (c) Copyright 04Jan2005 Georg Kresse                                                    
   COPYR  = This file is part of the software VASP. Any use, copying, and all other rights are regul
   COPYR  = If you do not have a valid VASP license, you may not use, copy or distribute this file. 
   VRHFIN =Zr: 4s4p5s4d                                                                             
   LEXCH  = PE                                                                                      
   EATOM  =  1284.2219 eV,   94.3876 Ry                                                             
                                                                                                    
   TITEL  = PAW_PBE Zr_sv 04Jan2005                                                                 
   LULTRA =        F    use ultrasoft PP ?                                                          
   IUNSCR =        1    unscreen: 0-lin 1-nonlin 2-no                                               
   RPACOR =    2.200    partial core radius                                                         
   POMASS =   91.224; ZVAL   =   12.000    mass and valenz                                          
   RCORE  =    2.500    outmost cutoff radius                                                       
   RWIGS  =    3.070; RWIGS  =    1.625    wigner-seitz radius (au A)                               
   ENMAX  =  229.898; ENMIN  =  172.424 eV                                                          
   ICORE  =        3    local potential                                                             
   LCOR   =        T    correct aug charges                                                         
   LPAW   =        T    paw PP                                                                      
   EAUG   =  461.257                                                                                
   DEXC   =    0.000                                                                                
   RMAX   =    2.561    core radius for proj-oper                                                   
   RAUG   =    1.300    factor for augmentation sphere                                              
   RDEP   =    2.597    radius for radial grids                                                     
   RDEPT  =    2.007    core radius for aug-charge                                                  
                                                                                                    
   Atomic configuration                                                                             
   11 entries                                                                                       
     n  l   j            E        occ.                                                              
     1  0  0.50    -17820.0161   2.0000                                                             
     2  0  0.50     -2467.0882   2.0000                                                             
     2  1  1.50     -2199.6095   6.0000                                                             
     3  0  0.50      -402.4863   2.0000                                                             
     3  1  1.50      -315.3675   6.0000                                                             
     3  2  2.50      -172.4472  10.0000                                                             
     4  0  0.50       -52.4146   2.0000                                                             
     5  0  0.50        -3.8421   1.0000                                                             
     4  1  1.50       -30.5054   6.0000                                                             
     4  2  2.50        -2.3341   3.0000                                                             
     4  3  2.50        -1.3606   0.0000                                                             
   Description                                                                                      
     l       E           TYP  RCUT    TYP  RCUT                                                     
     0    -52.4145962     23  2.200                                                                 
     0     -3.8421270     23  2.500                                                                 
     1    -30.5053914     23  2.200                                                                 
     1     20.4087390     23  2.200                                                                 
     2     -2.3340816     23  2.500                                                                 
     2     -0.6120942     23  2.500                                                                 
     3     -4.0817478     23  2.500                                                                 
  local pseudopotential read in
  partial core-charges read in
  partial kinetic energy density read in
  atomic valenz-charges read in
  non local Contribution for L=            0  read in
    real space projection operators read in
  non local Contribution for L=            0  read in
    real space projection operators read in
  non local Contribution for L=            1  read in
    real space projection operators read in
  non local Contribution for L=            1  read in
    real space projection operators read in
  non local Contribution for L=            2  read in
    real space projection operators read in
  non local Contribution for L=            2  read in
    real space projection operators read in
    PAW grid and wavefunctions read in
 
   number of l-projection  operators is LMAX  =            6
   number of lm-projection operators is LMMAX =           18
 
 -----------------------------------------------------------------------------
|                                                                             |
|               ----> ADVICE to this user running VASP <----                  |
|                                                                             |
|     You have a (more or less) 'large supercell' and for larger cells it     |
|     might be more efficient to use real-space projection operators.         |
|     Therefore, try LREAL= Auto in the INCAR file.                           |
|     Mind: For very accurate calculation, you might also keep the            |
|     reciprocal projection scheme (i.e. LREAL=.FALSE.).                      |
|                                                                             |
 -----------------------------------------------------------------------------

  PAW_PBE Cr_pv 02Aug2007               :
 energy of atom  1       EATOM=-1647.9177
 kinetic energy error for atom=    0.0057 (will be added to EATOM!!)
  PAW_PBE Ti_pv 07Sep2000               :
 energy of atom  2       EATOM=-1042.5995
 kinetic energy error for atom=    0.0019 (will be added to EATOM!!)
  PAW_PBE V_pv 07Sep2000                :
 energy of atom  3       EATOM=-1321.6206
 kinetic energy error for atom=    0.0054 (will be added to EATOM!!)
  PAW_PBE W_sv 04Sep2015                :
 energy of atom  4       EATOM=-1865.5791
 kinetic energy error for atom=    0.0026 (will be added to EATOM!!)
  PAW_PBE Zr_sv 04Jan2005               :
 energy of atom  5       EATOM=-1284.2219
 kinetic energy error for atom=    0.0043 (will be added to EATOM!!)
 
 
 POSCAR: Cr Ti V  W  Zr
  positions in cartesian coordinates
  No initial velocities read in
 exchange correlation table for  LEXCH =        8
   RHO(1)=    0.500       N(1)  =     2000
   RHO(2)=  100.500       N(2)  =     4000
 


--------------------------------------------------------------------------------------------------------


 ion  position               nearest neighbor table
   1  0.250  0.749  0.001-  65 2.50  36 2.50  22 2.53  53 2.54  28 2.56  58 2.57  30 2.59  59 2.60
                            60 2.99  52 3.01  37 3.03  90 3.04  29 3.04  64 3.04
   2  0.749  0.252  0.253-  67 2.51  77 2.56  98 2.57  69 2.58 104 2.58  99 2.60 124 2.62  75 2.63
                           118 2.95 111 2.96 105 2.99  76 3.02  15 3.05
   3  0.251  0.499  0.748-  26 2.65  49 2.65  51 2.65  18 2.65  57 2.66  20 2.66  58 2.66  28 2.67
                            64 2.94  50 2.96  27 3.02  88 3.03  56 3.03  52 3.03
   4  0.750  0.999  0.749- 121 2.64 101 2.65  71 2.65  95 2.65 102 2.74  97 2.74  73 2.74 123 2.74
                            72 2.98  11 2.98 100 3.01 122 3.01 107 3.01 127 3.09
   5  0.002  0.998  0.003-  30 2.56   6 2.58  12 2.60  36 2.60 123 2.64 102 2.66  98 2.70 117 2.88
                           127 3.06
   6  0.125  0.123  0.126-  37 2.57  39 2.58   5 2.58  46 2.60  15 2.61  13 2.61   7 2.62  44 2.63

   7  0.997  0.999  0.250-  98 2.56  32 2.58   8 2.61   6 2.62  99 2.62 117 2.62 119 2.63  30 2.64

   8  0.125  0.124  0.373-  15 2.56  41 2.57   9 2.60  39 2.60   7 2.61  46 2.61  48 2.62  17 2.63

   9  0.999  0.000  0.497- 121 2.56  34 2.58  10 2.58  32 2.59  99 2.59   8 2.60 101 2.61 119 2.68

  10  0.119  0.131  0.617-  17 2.50   9 2.58  48 2.58  19 2.59  11 2.69  41 2.69  50 2.69 126 2.73
                            18 2.91
  11  0.998  0.999  0.750- 123 2.56 121 2.58 102 2.59 101 2.62  34 2.68  10 2.69  12 2.69  36 2.75
                             4 2.98 126 3.05
  12  0.123  0.129  0.881-  13 2.53  44 2.57   5 2.60  19 2.61  37 2.65  50 2.67  11 2.69 126 2.73
                           102 2.86
  13  0.001  0.250  0.002- 102 2.52  12 2.53  20 2.57  14 2.61   6 2.61  98 2.62 124 2.64 108 2.65

  14  0.127  0.376  0.125-  52 2.58  44 2.59  46 2.59  54 2.59  13 2.61  21 2.61  15 2.64  23 2.66
                           124 3.05
  15  0.002  0.249  0.252-  98 2.52   8 2.56  16 2.58   6 2.61  99 2.62  14 2.64 124 2.64 104 2.65
                             2 3.05
  16  0.124  0.376  0.373-  15 2.58  25 2.60  48 2.60  56 2.61  23 2.61  54 2.61  17 2.62  46 2.62

  17  0.998  0.250  0.499-  10 2.50 101 2.57  18 2.57  99 2.58 104 2.59 106 2.61  16 2.62   8 2.63

  18  0.122  0.373  0.622-  17 2.57  19 2.58  50 2.60  48 2.60  25 2.60  27 2.63   3 2.65  56 2.66
                            10 2.91
  19  1.000  0.251  0.749- 102 2.48  18 2.58  10 2.59 106 2.60  20 2.60 101 2.61 108 2.61  12 2.61

  20  0.123  0.374  0.877-  13 2.57  21 2.59  19 2.60  44 2.60  27 2.61  50 2.61  52 2.61   3 2.66

  21  0.002  0.501  0.000- 115 2.56  28 2.57  20 2.59  22 2.59  14 2.61 124 2.63 108 2.64 110 2.74

  22  0.128  0.627  0.121-   1 2.53  29 2.57  31 2.58  52 2.59  21 2.59  60 2.61  54 2.62  23 2.65
                            28 2.91
  23  1.000  0.504  0.251-  24 2.56  16 2.61 124 2.61 110 2.62 112 2.64  22 2.65 104 2.65  14 2.66

  24  0.124  0.625  0.374-  31 2.53  23 2.56  62 2.60  25 2.60  54 2.60  33 2.60  56 2.60  60 2.62

  25  1.000  0.500  0.498- 104 2.59  16 2.60  24 2.60  26 2.60  18 2.60 125 2.61 106 2.65 112 2.78

  26  0.124  0.626  0.621-  64 2.58  62 2.60  25 2.60  35 2.61  33 2.61  56 2.62   3 2.65  27 2.66
                           125 3.01
  27  0.999  0.499  0.751- 108 2.58 115 2.59  20 2.61 125 2.63 106 2.63  18 2.63  26 2.66  28 2.66
                             3 3.02
  28  0.126  0.627  0.880-   1 2.56  21 2.57  52 2.59  29 2.59  64 2.60  35 2.61  27 2.66   3 2.67
                            36 2.89  22 2.91
  29  0.998  0.748  0.003- 123 2.51  36 2.54  22 2.57  28 2.59 115 2.60 110 2.61  30 2.61 117 2.64
                             1 3.04
  30  0.126  0.875  0.124-  31 2.55   5 2.56  37 2.57   1 2.59  60 2.60  39 2.61  29 2.61   7 2.64
                            36 2.89
  31  0.010  0.751  0.250- 117 2.47  24 2.53  32 2.54  30 2.55  22 2.58 112 2.62 110 2.65 119 2.67
                            60 2.89
  32  0.124  0.878  0.373-  31 2.54  41 2.56   7 2.58   9 2.59  39 2.59  33 2.61  60 2.61  62 2.63

  33  0.999  0.752  0.496-  34 2.49 121 2.58 119 2.60  24 2.60  32 2.61  26 2.61 112 2.64 125 2.65

  34  0.119  0.869  0.617-  33 2.49   9 2.58  62 2.58  35 2.59  11 2.68  41 2.68  64 2.70 126 2.72
                           121 2.91
  35  0.001  0.749  0.751- 123 2.46  34 2.59  26 2.61  36 2.61  28 2.61 125 2.64 115 2.64 121 2.66

  36  0.125  0.866  0.884-   1 2.50  29 2.54   5 2.60  35 2.61  37 2.64  64 2.67  11 2.75 126 2.75
                           123 2.88  28 2.89  30 2.89
  37  0.250  0.000  0.004-  59 2.56  30 2.57   6 2.57  38 2.57  36 2.64  65 2.65  43 2.65  12 2.65
                             1 3.03 126 3.10
  38  0.375  0.124  0.126-  37 2.57  66 2.58  39 2.58  46 2.60  76 2.61  74 2.62  68 2.62  44 2.62

  39  0.250  0.000  0.249-   6 2.58  38 2.58  61 2.58  32 2.59  40 2.60   8 2.60  59 2.61  30 2.61

  40  0.376  0.125  0.372-  76 2.58  41 2.58  39 2.60  46 2.60  70 2.60  68 2.62  48 2.62  78 2.63

  41  0.250  1.000  0.493-  61 2.55  32 2.56   8 2.57  40 2.58  63 2.68  34 2.68  42 2.69  10 2.69
                           126 3.06
  42  0.381  0.131  0.617-  78 2.50  70 2.58  48 2.58  80 2.59  41 2.69  72 2.69  50 2.70 126 2.73
                            49 2.92
  43  0.378  0.130  0.881-  74 2.54  44 2.56  66 2.59  80 2.62  37 2.65  50 2.67  72 2.70 126 2.73
                            73 2.85
  44  0.250  0.250  0.001-  43 2.56  12 2.57  14 2.59  45 2.60  20 2.60  51 2.61  38 2.62   6 2.63

  45  0.374  0.376  0.124-  52 2.58  74 2.58  82 2.59  44 2.60  46 2.60  54 2.60  76 2.61  84 2.63

  46  0.250  0.250  0.248-  14 2.59  38 2.60  45 2.60  40 2.60   6 2.60   8 2.61  47 2.62  16 2.62

  47  0.376  0.376  0.373-  76 2.57  56 2.60  84 2.61  48 2.61  54 2.61  86 2.61  78 2.61  46 2.62

  48  0.250  0.252  0.497-  42 2.58  10 2.58  16 2.60  18 2.60  47 2.61  49 2.61   8 2.62  40 2.62

  49  0.379  0.373  0.622-  78 2.57  80 2.58  86 2.60  48 2.61  50 2.61  88 2.63  56 2.65   3 2.65
                            42 2.92
  50  0.250  0.254  0.750-  18 2.60  20 2.61  51 2.61  49 2.61  43 2.67  12 2.67  10 2.69  42 2.70
                             3 2.96 126 3.08
  51  0.378  0.374  0.877-  74 2.56  82 2.58  80 2.60  44 2.61  52 2.61  50 2.61  88 2.62   3 2.65

  52  0.250  0.499  1.000-  14 2.58  45 2.58  53 2.58  28 2.59  22 2.59  58 2.59  51 2.61  20 2.61
                             1 3.01   3 3.03
  53  0.373  0.627  0.121-   1 2.54  90 2.56  92 2.58  52 2.58  82 2.59  60 2.61  54 2.61  84 2.64
                            58 2.91
  54  0.250  0.501  0.249-  14 2.59  55 2.60  24 2.60  45 2.60  47 2.61  16 2.61  53 2.61  22 2.62

  55  0.376  0.625  0.373-  92 2.52  84 2.57  86 2.60  54 2.60  56 2.60  94 2.60  62 2.60  60 2.62

  56  0.250  0.501  0.497-  55 2.60  24 2.60  47 2.60  16 2.61  26 2.62  57 2.63  49 2.65  18 2.66
                             3 3.03
  57  0.379  0.626  0.621-  96 2.57  86 2.58  94 2.58  64 2.60  62 2.62  88 2.62  56 2.63   3 2.66

  58  0.375  0.626  0.880-   1 2.57  82 2.58  90 2.58  52 2.59  64 2.60  96 2.62   3 2.66  88 2.66
                            65 2.89  53 2.91
  59  0.374  0.875  0.124-  92 2.55  66 2.56  37 2.56  60 2.59   1 2.60  39 2.61  90 2.62  68 2.64
                            65 2.89
  60  0.250  0.752  0.249-  59 2.59  30 2.60  22 2.61  53 2.61  32 2.61  61 2.61  24 2.62  55 2.62
                            92 2.89  31 2.89   1 2.99
  61  0.376  0.878  0.373-  92 2.54  41 2.55  70 2.58  39 2.58  68 2.59  60 2.61  94 2.62  62 2.63

  62  0.250  0.749  0.496-  63 2.57  34 2.58  24 2.60  26 2.60  55 2.60  57 2.62  61 2.63  32 2.63

  63  0.381  0.869  0.616-  94 2.49  62 2.57  70 2.58  96 2.60  72 2.68  41 2.68  64 2.70 126 2.72
                            95 2.91
  64  0.250  0.744  0.749-  26 2.58  28 2.60  58 2.60  57 2.60  65 2.66  36 2.67  63 2.70  34 2.70
                             3 2.94   1 3.04 126 3.07
  65  0.375  0.866  0.884-   1 2.50  90 2.54  66 2.61  96 2.63  37 2.65  64 2.66 126 2.75  72 2.75
                            97 2.88  58 2.89  59 2.89
  66  0.497  0.999  0.002-  59 2.56  38 2.58  43 2.59  65 2.61  73 2.66  97 2.66  67 2.75 127 3.03

  67  0.623  0.135  0.135-  76 2.48   2 2.51  68 2.58  74 2.61 118 2.62 103 2.63 127 2.75  66 2.75
                            69 2.91
  68  0.504  0.999  0.250-  67 2.58  61 2.59  38 2.62  40 2.62  69 2.62  93 2.63  59 2.64  91 2.64

  69  0.627  0.127  0.376- 118 2.52   2 2.58  78 2.58  70 2.60 100 2.60 105 2.60  68 2.62  76 2.63
                            67 2.91
  70  0.501  0.000  0.497-  42 2.58  95 2.58  61 2.58  63 2.58  69 2.60  40 2.60  71 2.61  93 2.67

  71  0.624  0.127  0.622- 105 2.57  78 2.57  80 2.61 100 2.61  70 2.61 107 2.62  72 2.63   4 2.65

  72  0.502  0.999  0.749-  97 2.57  73 2.59  95 2.60  71 2.63  63 2.68  42 2.69  43 2.70  65 2.75
                             4 2.98 126 3.04
  73  0.614  0.134  0.873-  80 2.47  74 2.53  72 2.59 107 2.60 103 2.65  66 2.66   4 2.74 127 2.82
                            43 2.85
  74  0.499  0.252  0.002-  73 2.53  43 2.54  51 2.56  45 2.58  75 2.61  67 2.61  38 2.62  81 2.62

  75  0.623  0.378  0.127- 111 2.57  84 2.58  82 2.60 109 2.60  74 2.61  76 2.61 103 2.63   2 2.63
                           124 3.03
  76  0.498  0.251  0.251-  67 2.48  47 2.57  40 2.58  38 2.61  75 2.61  45 2.61  77 2.62  69 2.63
                             2 3.02
  77  0.627  0.376  0.374- 111 2.54   2 2.56 113 2.57  78 2.60  86 2.61 105 2.61  76 2.62  84 2.63

  78  0.502  0.251  0.498-  42 2.50  49 2.57  71 2.57  69 2.58  77 2.60  47 2.61  79 2.62  40 2.63

  79  0.626  0.376  0.625- 114 2.58 105 2.58  88 2.60  80 2.61 107 2.61 113 2.61  78 2.62  86 2.63

  80  0.500  0.252  0.749-  73 2.47  49 2.58  42 2.59  51 2.60  79 2.61  71 2.61  43 2.62  81 2.62

  81  0.625  0.376  0.876- 114 2.57 103 2.59  88 2.59 109 2.61  82 2.62  80 2.62 107 2.62  74 2.62

  82  0.499  0.501  0.001-  89 2.57  51 2.58  58 2.58  45 2.59  53 2.59  75 2.60  81 2.62  83 2.69

  83  0.629  0.628  0.131- 111 2.58  84 2.59 109 2.60  90 2.61 116 2.61  92 2.66  82 2.69  91 2.74
                            85 2.85 110 2.89
  84  0.500  0.503  0.249-  55 2.57  75 2.58  83 2.59  47 2.61  45 2.63  77 2.63  53 2.64  85 2.65

  85  0.631  0.635  0.367- 111 2.58 120 2.61  92 2.61  94 2.61 113 2.64  84 2.65  86 2.74 112 2.84
                            83 2.85  93 2.85
  86  0.501  0.501  0.498-  87 2.57  57 2.58  55 2.60  49 2.60  77 2.61  47 2.61  79 2.63  85 2.74

  87  0.623  0.623  0.623-  86 2.57  88 2.58 120 2.58 113 2.60  96 2.61  94 2.62 114 2.63 122 2.64
                           125 3.02
  88  0.502  0.500  0.750-  89 2.56  87 2.58  81 2.59  79 2.60  57 2.62  51 2.62  49 2.63  58 2.66
                             3 3.03
  89  0.624  0.621  0.876- 116 2.54  88 2.56  82 2.57 109 2.58 114 2.60  90 2.61  96 2.63 122 2.64

  90  0.502  0.747  0.003-  97 2.51  65 2.54  53 2.56  58 2.58  83 2.61  89 2.61  59 2.62  91 2.66
                             1 3.04
  91  0.631  0.855  0.146-  92 2.46  68 2.64  90 2.66 118 2.69 116 2.70  93 2.74  83 2.74 127 2.78
                           117 2.88
  92  0.490  0.750  0.250-  91 2.46  55 2.52  61 2.54  59 2.55  53 2.58  85 2.61  83 2.66  93 2.67
                            60 2.89
  93  0.631  0.871  0.372- 118 2.58 120 2.59  94 2.61 100 2.61  68 2.63  70 2.67  92 2.67  91 2.74
                            85 2.85 119 2.87
  94  0.501  0.751  0.497-  63 2.49  95 2.57  57 2.58  55 2.60  93 2.61  85 2.61  87 2.62  61 2.62

  95  0.622  0.875  0.620- 120 2.53  94 2.57  70 2.58  72 2.60 100 2.60  96 2.64   4 2.65 122 2.66
                            63 2.91
  96  0.500  0.748  0.749-  97 2.46  57 2.57  63 2.60  87 2.61  58 2.62  89 2.63  65 2.63  95 2.64

  97  0.613  0.864  0.872-  96 2.46  90 2.51  72 2.57 122 2.59 116 2.64  66 2.66   4 2.74 127 2.78
                            65 2.88
  98  0.877  0.130  0.134-  15 2.52   7 2.56   2 2.57 118 2.59  13 2.62 103 2.68   5 2.70 127 2.73
                            99 2.92 124 2.98
  99  0.874  0.126  0.376- 118 2.52  17 2.58 100 2.59   9 2.59   2 2.60 105 2.61  15 2.62   7 2.62
                            98 2.92
 100  0.750  0.000  0.500- 121 2.59  99 2.59  69 2.60  95 2.60 101 2.61  71 2.61  93 2.61 119 2.62
                             4 3.01
 101  0.876  0.127  0.622-  17 2.57 105 2.58  19 2.61 100 2.61   9 2.61  11 2.62 107 2.63   4 2.65

 102  0.885  0.133  0.874-  19 2.48  13 2.52  11 2.59 107 2.61   5 2.66 103 2.67   4 2.74 127 2.83
                            12 2.86
 103  0.749  0.253  0.000-  81 2.59 108 2.60 124 2.62  75 2.63  67 2.63  73 2.65 102 2.67  98 2.68
                           127 3.11
 104  0.873  0.376  0.377- 113 2.58   2 2.58 111 2.58 105 2.59  25 2.59  17 2.59  23 2.65  15 2.65
                           124 3.01
 105  0.750  0.252  0.502- 106 2.56  71 2.57  79 2.58 101 2.58 104 2.59  69 2.60  99 2.61  77 2.61
                             2 2.99
 106  0.873  0.373  0.625- 105 2.56 107 2.59  19 2.60  17 2.61 114 2.61  27 2.63  25 2.65 113 2.66
                           125 3.02
 107  0.750  0.249  0.751- 106 2.59  73 2.60 108 2.60 102 2.61  79 2.61  71 2.62  81 2.62 101 2.63
                             4 3.01
 108  0.874  0.376  0.874-  27 2.58 114 2.58 107 2.60 103 2.60  19 2.61  21 2.64 109 2.64  13 2.65
                           124 3.05
 109  0.749  0.502  0.002-  89 2.58 115 2.58  75 2.60  83 2.60  81 2.61 124 2.62 110 2.64 108 2.64
                           116 2.91
 110  0.869  0.630  0.132- 116 2.59 111 2.61  29 2.61  23 2.62 109 2.64  31 2.65  21 2.74 117 2.74
                           112 2.82  83 2.89 124 3.06
 111  0.748  0.497  0.252-  77 2.54  75 2.57 104 2.58  85 2.58  83 2.58 112 2.59 124 2.59 110 2.61
                             2 2.96
 112  0.867  0.635  0.366- 111 2.59  31 2.62 120 2.63  33 2.64  23 2.64 113 2.67  25 2.78 110 2.82
                            85 2.84 119 2.84 125 3.11
 113  0.748  0.502  0.497-  77 2.57 104 2.58  87 2.60 125 2.61  79 2.61  85 2.64 106 2.66 112 2.67

 114  0.749  0.498  0.751-  81 2.57  79 2.58 108 2.58  89 2.60 106 2.61 115 2.62  87 2.63 125 2.63

 115  0.876  0.621  0.878- 116 2.52  21 2.56 109 2.58  27 2.59  29 2.60 114 2.62  35 2.64 122 2.66
                           125 3.06
 116  0.750  0.743  0.992- 115 2.52  89 2.54 110 2.59  83 2.61 123 2.64  97 2.64  91 2.70 117 2.71
                           122 2.91 109 2.91 127 3.05
 117  0.870  0.857  0.144-  31 2.47   7 2.62  29 2.64 118 2.68 116 2.71 110 2.74 119 2.75 127 2.77
                            91 2.88   5 2.88
 118  0.750  0.007  0.257-  99 2.52  69 2.52 119 2.58  93 2.58  98 2.59  67 2.62 117 2.68  91 2.69
                             2 2.95 127 3.03
 119  0.869  0.871  0.372- 118 2.58 120 2.60  33 2.60 100 2.62   7 2.63  31 2.67   9 2.68 117 2.75
                           112 2.84  93 2.87
 120  0.749  0.752  0.506-  95 2.53 121 2.56  87 2.58  93 2.59 125 2.59 119 2.60  85 2.61 112 2.63

 121  0.878  0.877  0.620-   9 2.56 120 2.56  11 2.58  33 2.58 100 2.59   4 2.64  35 2.66 122 2.69
                            34 2.91 125 3.05
 122  0.749  0.749  0.751-  97 2.59 123 2.61 125 2.63  89 2.64  87 2.64 115 2.66  95 2.66 121 2.69
                           116 2.91   4 3.01
 123  0.886  0.865  0.872-  35 2.46  29 2.51  11 2.56 122 2.61 116 2.64   5 2.64   4 2.74 127 2.79
                            36 2.88
 124  0.875  0.377  0.127- 111 2.59  23 2.61 109 2.62   2 2.62 103 2.62  21 2.63  13 2.64  15 2.64
                            98 2.98 104 3.01  75 3.03  14 3.05 108 3.05 110 3.06
 125  0.874  0.624  0.624- 120 2.59 113 2.61  25 2.61  27 2.63 114 2.63 122 2.63  35 2.64  33 2.65
                            26 3.01 106 3.02  87 3.02 121 3.05 115 3.06 112 3.11
 126  0.250  0.999  0.747-  63 2.72  34 2.72  12 2.73  42 2.73  10 2.73  43 2.73  65 2.75  36 2.75
                            72 3.04  11 3.05  41 3.06  64 3.07  50 3.08  37 3.10
 127  0.749  0.995  0.006-  98 2.73  67 2.75 117 2.77  91 2.78  97 2.78 123 2.79  73 2.82 102 2.83
                            66 3.03 118 3.03 116 3.05   5 3.06   4 3.09 103 3.11
 
  LATTYP: Found a triclinic cell.
 ALAT       =    17.0358975283
 B/A-ratio  =     0.7070015846
 C/A-ratio  =     0.7071772766
 COS(alpha) =     0.0000417821
 COS(beta)  =     0.0004596508
 COS(gamma) =     0.7064723174
  
  Lattice vectors:
  
 A1 = ( -12.0398988670, -12.0524945360,  -0.0039149010)
 A2 = ( -12.0444057020,   0.0045050720,  -0.0002512580)
 A3 = (  -0.0002534140,  -0.0036608590, -12.0473990590)


Analysis of symmetry for initial positions (statically):
=====================================================================
 Subroutine PRICEL returns:
 Original cell was already a primitive cell.
 

 Routine SETGRP: Setting up the symmetry group for a 
 triclinic supercell.


 Subroutine GETGRP returns: Found  1 space group operations
 (whereof  1 operations were pure point group operations)
 out of a pool of  2 trial point group operations.


The static configuration has the point symmetry C_1 .


Analysis of symmetry for dynamics (positions and initial velocities):
=====================================================================
 Subroutine PRICEL returns:
 Original cell was already a primitive cell.
 

 Routine SETGRP: Setting up the symmetry group for a 
 triclinic supercell.


 Subroutine GETGRP returns: Found  1 space group operations
 (whereof  1 operations were pure point group operations)
 out of a pool of  2 trial point group operations.


The dynamic configuration has the point symmetry C_1 .


 Subroutine INISYM returns: Found  1 space group operations
 (whereof  1 operations are pure point group operations),
 and found     1 'primitive' translations


----------------------------------------------------------------------------------------

                                     Primitive cell                                     

  volume of cell :    1749.5156

  direct lattice vectors                    reciprocal lattice vectors
    12.044405702 -0.004505072  0.000251258     0.083026109  0.000031035 -0.000001756
    -0.004506835 12.056999608  0.003663643     0.000031023  0.082939393 -0.000025204
     0.000253414  0.003660859 12.047399059    -0.000001741 -0.000025223  0.083005476

  length of vectors
    12.044406547 12.057001007 12.047399618     0.083026115  0.082939403  0.083005480

  position of ions in fractional coordinates (direct lattice)
     0.249996111  0.748840667  0.001261160
     0.749211814  0.251898286  0.253414772
     0.250523899  0.499493159  0.748404452
     0.749706084  0.999396598  0.749302829
     0.002356984  0.998295692  0.002692034
     0.125323962  0.123068117  0.126298434
     0.997198937  0.998933067  0.250448225
     0.124772986  0.124476778  0.373040072
     0.999488458  0.000111327  0.497288123
     0.119395189  0.131020050  0.617122414
     0.997536558  0.998886918  0.749660852
     0.122594659  0.129360370  0.880768971
     0.001298240  0.250049770  0.001603963
     0.127439454  0.375886884  0.124589619
     0.002134568  0.249278196  0.251990175
     0.124436930  0.375764583  0.373455054
     0.998256985  0.250387515  0.498529336
     0.122036001  0.372501606  0.622275778
     0.999831473  0.250758530  0.749481387
     0.122836421  0.373662732  0.877382754
     0.001728567  0.501375729  0.000222679
     0.127692010  0.626860805  0.121496044
     0.999816169  0.503557331  0.250933432
     0.124263698  0.625061179  0.373526166
     0.999798016  0.499984838  0.497724717
     0.124124432  0.626268116  0.621373489
     0.999420194  0.498558342  0.751096030
     0.125627678  0.626526145  0.879703828
     0.997905118  0.747583863  0.003339447
     0.125877649  0.874860592  0.123814542
     0.010006290  0.750685044  0.250159161
     0.124401586  0.878133585  0.372629939
     0.999457965  0.751574341  0.496063641
     0.119379875  0.868883689  0.616663123
     0.001341182  0.748636320  0.750705350
     0.125235662  0.866048626  0.884014515
     0.250332784  0.000162687  0.004439672
     0.375075030  0.123761163  0.126049808
     0.250408285  0.000455087  0.248883215
     0.375548561  0.125050096  0.372295089
     0.250264870  0.999918255  0.492631957
     0.380997134  0.130986874  0.616721032
     0.377572260  0.130189587  0.880993326
     0.250206473  0.250402556  0.001003515
     0.374100997  0.376247857  0.124310447
     0.250409573  0.250158334  0.248352410
     0.376163958  0.376288368  0.373120113
     0.250233825  0.251562299  0.497365901
     0.378931455  0.373161699  0.621890055
     0.250175610  0.254391066  0.749570517
     0.377669412  0.374088062  0.877339128
     0.250216468  0.498929934  0.999788272
     0.372514313  0.626649675  0.121097556
     0.250159799  0.501302521  0.249310290
     0.376447844  0.624632176  0.373144192
     0.250464072  0.500764596  0.497100861
     0.379161518  0.626302008  0.621461956
     0.374969970  0.626456789  0.879577461
     0.374402235  0.875061310  0.123695580
     0.250285876  0.751704016  0.249268172
     0.375880271  0.878434017  0.372800574
     0.250406027  0.749433619  0.496400210
     0.380774267  0.868887747  0.616302407
     0.250216736  0.743667327  0.748616573
     0.374865956  0.865706569  0.883682372
     0.496917477  0.999172286  0.002294950
     0.623376877  0.134951850  0.134930282
     0.503532057  0.999475379  0.249613663
     0.626702143  0.126507999  0.375988961
     0.500573939  0.000341370  0.496939044
     0.624307837  0.127461745  0.621805265
     0.502417622  0.998822355  0.749190293
     0.614408350  0.134166218  0.872995411
     0.499166698  0.252244354  0.002378974
     0.623414023  0.377996526  0.126899467
     0.498447869  0.251145240  0.250621287
     0.626516637  0.376189943  0.374367474
     0.501943008  0.251036650  0.497834773
     0.626363403  0.375713241  0.624829982
     0.500207637  0.251517884  0.749127077
     0.625308960  0.376466123  0.875523721
     0.498753999  0.500507941  0.000784485
     0.629049297  0.627511425  0.130816864
     0.500371186  0.502949513  0.249155161
     0.631224768  0.634652838  0.367316318
     0.501139132  0.501297512  0.498179522
     0.623382340  0.622997187  0.623225884
     0.501683022  0.500103261  0.749904747
     0.623576295  0.620799788  0.875875272
     0.502030353  0.747305409  0.002913160
     0.631202116  0.854543462  0.145711174
     0.490092153  0.750445565  0.250220606
     0.630840799  0.871306281  0.372179864
     0.501212534  0.750623746  0.496545688
     0.622340779  0.874664842  0.620080661
     0.499509049  0.747649275  0.749360533
     0.613334934  0.864391831  0.871695129
     0.877494630  0.129874933  0.134164536
     0.873765143  0.125868652  0.376438043
     0.750206717  0.000141914  0.499520349
     0.875932257  0.126734511  0.622308232
     0.884992424  0.132945930  0.873546275
     0.748914423  0.252766320  0.000134949
     0.872532715  0.375761928  0.376797854
     0.749911331  0.251512054  0.501977240
     0.873071958  0.373063301  0.625311225
     0.749829747  0.249380439  0.750692985
     0.874090654  0.375862841  0.874035408
     0.748521811  0.501658360  0.002046419
     0.869057124  0.630152828  0.131873526
     0.747976887  0.497245295  0.252227084
     0.867030708  0.635098069  0.365725030
     0.748293851  0.501593504  0.496724172
     0.748684081  0.498135149  0.750530206
     0.875751489  0.620984662  0.877797344
     0.749941479  0.742750871  0.992238192
     0.870442908  0.857374485  0.144113279
     0.750299898  0.006994196  0.257081702
     0.868955234  0.870590012  0.371844754
     0.748538492  0.752102414  0.506360457
     0.877920818  0.876828757  0.620376813
     0.749154221  0.749448993  0.750855518
     0.886356572  0.865175418  0.872315057
     0.874567541  0.376871089  0.127133627
     0.874411982  0.623662266  0.623786544
     0.250378043  0.998660881  0.746746410
     0.748537832  0.995107543  0.005727062

  ion indices of the primitive-cell ions
   primitive index   ion index
                 1           1
                 2           2
                 3           3
                 4           4
                 5           5
                 6           6
                 7           7
                 8           8
                 9           9
                10          10
                11          11
                12          12
                13          13
                14          14
                15          15
                16          16
                17          17
                18          18
                19          19
                20          20
                21          21
                22          22
                23          23
                24          24
                25          25
                26          26
                27          27
                28          28
                29          29
                30          30
                31          31
                32          32
                33          33
                34          34
                35          35
                36          36
                37          37
                38          38
                39          39
                40          40
                41          41
                42          42
                43          43
                44          44
                45          45
                46          46
                47          47
                48          48
                49          49
                50          50
                51          51
                52          52
                53          53
                54          54
                55          55
                56          56
                57          57
                58          58
                59          59
                60          60
                61          61
                62          62
                63          63
                64          64
                65          65
                66          66
                67          67
                68          68
                69          69
                70          70
                71          71
                72          72
                73          73
                74          74
                75          75
                76          76
                77          77
                78          78
                79          79
                80          80
                81          81
                82          82
                83          83
                84          84
                85          85
                86          86
                87          87
                88          88
                89          89
                90          90
                91          91
                92          92
                93          93
                94          94
                95          95
                96          96
                97          97
                98          98
                99          99
               100         100
               101         101
               102         102
               103         103
               104         104
               105         105
               106         106
               107         107
               108         108
               109         109
               110         110
               111         111
               112         112
               113         113
               114         114
               115         115
               116         116
               117         117
               118         118
               119         119
               120         120
               121         121
               122         122
               123         123
               124         124
               125         125
               126         126
               127         127

----------------------------------------------------------------------------------------

 
 
 KPOINTS: KPOINTS generated by db_to_vasp         

Automatic generation of k-mesh.
 Grid dimensions read from file:
 generate k-points for:    4    4    4

 Generating k-lattice:

  Cartesian coordinates                     Fractional coordinates (reciprocal lattice)
     0.020756527  0.000007759 -0.000000439     0.250000000  0.000000000 -0.000000000
     0.000007756  0.020734848 -0.000006301    -0.000000000  0.250000000  0.000000000
    -0.000000435 -0.000006306  0.020751369     0.000000000  0.000000000  0.250000000

  Length of vectors
     0.020756529  0.020734851  0.020751370

  Shift w.r.t. Gamma in fractional coordinates (k-lattice)
     0.000000000  0.000000000  0.000000000

 
 Subroutine IBZKPT returns following result:
 ===========================================
 
 Found     36 irreducible k-points:
 
 Following reciprocal coordinates:
            Coordinates               Weight
  0.000000  0.000000  0.000000      1.000000
  0.250000  0.000000  0.000000      2.000000
  0.500000  0.000000  0.000000      1.000000
  0.000000  0.250000  0.000000      2.000000
  0.250000  0.250000  0.000000      2.000000
  0.500000  0.250000  0.000000      2.000000
 -0.250000  0.250000  0.000000      2.000000
  0.000000  0.500000  0.000000      1.000000
  0.250000  0.500000  0.000000      2.000000
  0.500000  0.500000  0.000000      1.000000
  0.000000  0.000000  0.250000      2.000000
  0.250000  0.000000  0.250000      2.000000
  0.500000  0.000000  0.250000      2.000000
 -0.250000  0.000000  0.250000      2.000000
  0.000000  0.250000  0.250000      2.000000
  0.250000  0.250000  0.250000      2.000000
  0.500000  0.250000  0.250000      2.000000
 -0.250000  0.250000  0.250000      2.000000
  0.000000  0.500000  0.250000      2.000000
  0.250000  0.500000  0.250000      2.000000
  0.500000  0.500000  0.250000      2.000000
 -0.250000  0.500000  0.250000      2.000000
  0.000000 -0.250000  0.250000      2.000000
  0.250000 -0.250000  0.250000      2.000000
  0.500000 -0.250000  0.250000      2.000000
 -0.250000 -0.250000  0.250000      2.000000
  0.000000  0.000000  0.500000      1.000000
  0.250000  0.000000  0.500000      2.000000
  0.500000  0.000000  0.500000      1.000000
  0.000000  0.250000  0.500000      2.000000
  0.250000  0.250000  0.500000      2.000000
  0.500000  0.250000  0.500000      2.000000
 -0.250000  0.250000  0.500000      2.000000
  0.000000  0.500000  0.500000      1.000000
  0.250000  0.500000  0.500000      2.000000
  0.500000  0.500000  0.500000      1.000000
 
 Following cartesian coordinates:
            Coordinates               Weight
  0.000000  0.000000  0.000000      1.000000
  0.020757  0.000008 -0.000000      2.000000
  0.041513  0.000016 -0.000001      1.000000
  0.000008  0.020735 -0.000006      2.000000
  0.020764  0.020743 -0.000007      2.000000
  0.041521  0.020750 -0.000007      2.000000
 -0.020749  0.020727 -0.000006      2.000000
  0.000016  0.041470 -0.000013      1.000000
  0.020772  0.041477 -0.000013      2.000000
  0.041529  0.041485 -0.000013      1.000000
 -0.000000 -0.000006  0.020751      2.000000
  0.020756  0.000001  0.020751      2.000000
  0.041513  0.000009  0.020750      2.000000
 -0.020757 -0.000014  0.020752      2.000000
  0.000007  0.020729  0.020745      2.000000
  0.020764  0.020736  0.020745      2.000000
  0.041520  0.020744  0.020744      2.000000
 -0.020749  0.020721  0.020746      2.000000
  0.000015  0.041463  0.020739      2.000000
  0.020772  0.041471  0.020738      2.000000
  0.041528  0.041479  0.020738      2.000000
 -0.020741  0.041456  0.020739      2.000000
 -0.000008 -0.020741  0.020758      2.000000
  0.020748 -0.020733  0.020757      2.000000
  0.041505 -0.020726  0.020757      2.000000
 -0.020765 -0.020749  0.020758      2.000000
 -0.000001 -0.000013  0.041503      1.000000
  0.020756 -0.000005  0.041502      2.000000
  0.041512  0.000003  0.041502      1.000000
  0.000007  0.020722  0.041496      2.000000
  0.020763  0.020730  0.041496      2.000000
  0.041520  0.020738  0.041496      2.000000
 -0.020750  0.020714  0.041497      2.000000
  0.000015  0.041457  0.041490      1.000000
  0.020771  0.041465  0.041490      2.000000
  0.041528  0.041473  0.041489      1.000000
 


--------------------------------------------------------------------------------------------------------




 Dimension of arrays:
   k-points           NKPTS =     36   k-points in BZ     NKDIM =     36   number of bands    NBANDS=    844
   number of dos      NEDOS =    301   number of ions     NIONS =    127
   non local maximal  LDIM  =      6   non local SUM 2l+1 LMDIM =     18
   total plane-waves  NPLWV = 729000
   max r-space proj   IRMAX =      1   max aug-charges    IRDMAX=  23982
   dimension x,y,z NGX =    90 NGY =   90 NGZ =   90
   dimension x,y,z NGXF=   180 NGYF=  180 NGZF=  180
   support grid    NGXF=   180 NGYF=  180 NGZF=  180
   ions per type =               2   2 119   2   2
   NGX,Y,Z   is equivalent  to a cutoff of  12.42, 12.41, 12.42 a.u.
   NGXF,Y,Z  is equivalent  to a cutoff of  24.84, 24.82, 24.84 a.u.

 SYSTEM =  unknown system                          
 POSCAR =  Cr Ti V  W  Zr                          

 Startparameter for this run:
   NWRITE =      2    write-flag & timer
   PREC   = accura    normal or accurate (medium, high low for compatibility)
   ISTART =      0    job   : 0-new  1-cont  2-samecut
   ICHARG =      2    charge: 1-file 2-atom 10-const
   ISPIN  =      1    spin polarized calculation?
   LNONCOLLINEAR =      F non collinear calculations
   LSORBIT =      F    spin-orbit coupling
   INIWAV =      1    electr: 0-lowe 1-rand  2-diag
   LASPH  =      F    aspherical Exc in radial PAW
 Electronic Relaxation 1
   ENCUT  =  520.0 eV  38.22 Ry    6.18 a.u.  22.39 22.42 22.40*2*pi/ulx,y,z
   ENINI  =  520.0     initial cutoff
   ENAUG  =  598.5 eV  augmentation charge cutoff
   NELM   =     60;   NELMIN=  2; NELMDL= -5     # of ELM steps 
   EDIFF  = 0.1E-05   stopping-criterion for ELM
   LREAL  =      F    real-space projection
   NLSPLINE    = F    spline interpolate recip. space projectors
   LCOMPAT=      F    compatible to vasp.4.4
   GGA_COMPAT  = T    GGA compatible to vasp.4.4-vasp.4.6
   LMAXPAW     = -100 max onsite density
   LMAXMIX     =    2 max onsite mixed and CHGCAR
   VOSKOWN=      0    Vosko Wilk Nusair interpolation
   ROPT   =    0.00000   0.00000   0.00000   0.00000
   ROPT   =    0.00000
 Ionic relaxation
   EDIFFG = 0.1E-04   stopping-criterion for IOM
   NSW    =      0    number of steps for IOM
   NBLOCK =      1;   KBLOCK =      1    inner block; outer block 
   IBRION =     -1    ionic relax: 0-MD 1-quasi-New 2-CG
   NFREE  =      0    steps in history (QN), initial steepest desc. (CG)
   ISIF   =      2    stress and relaxation
   IWAVPR =     10    prediction:  0-non 1-charg 2-wave 3-comb
   ISYM   =      2    0-nonsym 1-usesym 2-fastsym
   LCORR  =      T    Harris-Foulkes like correction to forces

   POTIM  = 0.5000    time-step for ionic-motion
   TEIN   =    0.0    initial temperature
   TEBEG  =    0.0;   TEEND  =   0.0 temperature during run
   SMASS  =  -3.00    Nose mass-parameter (am)
   estimated Nose-frequenzy (Omega)   =  0.10E-29 period in steps = 0.13E+47 mass=  -0.332E-26a.u.
   SCALEE = 1.0000    scale energy and forces
   NPACO  =    256;   APACO  = 10.0  distance and # of slots for P.C.
   PSTRESS=    0.0 pullay stress

  Mass of Ions in am
   POMASS =  52.00 47.88 50.94183.85 91.22
  Ionic Valenz
   ZVAL   =  12.00 10.00 11.00 14.00 12.00
  Atomic Wigner-Seitz radii
   RWIGS  =  -1.00 -1.00 -1.00 -1.00 -1.00
  virtual crystal weights 
   VCA    =   1.00  1.00  1.00  1.00  1.00
   NELECT =    1405.0000    total number of electrons
   NUPDOWN=      -1.0000    fix difference up-down

 DOS related values:
   EMIN   =  10.00;   EMAX   =-10.00  energy-range for DOS
   EFERMI =   0.00;   METHOD = LEGACY      
   ISMEAR =     1;   SIGMA  =   0.20  broadening in eV -4-tet -1-fermi 0-gaus

 Electronic relaxation 2 (details)
   IALGO  =     38    algorithm
   LDIAG  =      T    sub-space diagonalisation (order eigenvalues)
   LSUBROT=      F    optimize rotation matrix (better conditioning)
   TURBO    =      0    0=normal 1=particle mesh
   IRESTART =      0    0=no restart 2=restart with 2 vectors
   NREBOOT  =      0    no. of reboots
   NMIN     =      0    reboot dimension
   EREF     =   0.00    reference energy to select bands
   IMIX   =      4    mixing-type and parameters
     AMIX     =   0.40;   BMIX     =  1.00
     AMIX_MAG =   1.60;   BMIX_MAG =  1.00
     AMIN     =   0.10
     WC   =   100.;   INIMIX=   1;  MIXPRE=   1;  MAXMIX= -45

 Intra band minimization:
   WEIMIN = 0.0000     energy-eigenvalue tresh-hold
   EBREAK =  0.30E-09  absolut break condition
   DEPER  =   0.30     relativ break condition  

   TIME   =   0.40     timestep for ELM

  volume/ion in A,a.u.               =      13.78        92.96
  Fermi-wavevector in a.u.,A,eV,Ry     =   1.521695  2.875587 31.505055  2.315556
  Thomas-Fermi vector in A             =   2.630375
 
 Write flags
   LWAVE        =      F    write WAVECAR
   LDOWNSAMPLE  =      F    k-point downsampling of WAVECAR
   LCHARG       =      T    write CHGCAR
   LVTOT        =      F    write LOCPOT, total local potential
   LVHAR        =      F    write LOCPOT, Hartree potential only
   LELF         =      F    write electronic localiz. function (ELF)
   LORBIT       =      0    0 simple, 1 ext, 2 COOP (PROOUT), +10 PAW based schemes


 Dipole corrections
   LMONO  =      F    monopole corrections only (constant potential shift)
   LDIPOL =      F    correct potential (dipole corrections)
   IDIPOL =      0    1-x, 2-y, 3-z, 4-all directions 
   EPSILON=  1.0000000 bulk dielectric constant

 Exchange correlation treatment:
   GGA     =    --    GGA type
   LEXCH   =     8    internal setting for exchange type
   LIBXC   =     F    Libxc                    
   VOSKOWN =     0    Vosko Wilk Nusair interpolation
   LHFCALC =     F    Hartree Fock is set to
   LHFONE  =     F    Hartree Fock one center treatment
   AEXX    =    0.0000 exact exchange contribution

 Linear response parameters
   LEPSILON=     F    determine dielectric tensor
   LRPA    =     F    only Hartree local field effects (RPA)
   LNABLA  =     F    use nabla operator in PAW spheres
   LVEL    =     F    velocity operator in full k-point grid
   CSHIFT  =0.1000    complex shift for real part using Kramers Kronig
   OMEGAMAX=  -1.0    maximum frequency
   DEG_THRESHOLD= 0.2000000E-02 threshold for treating states as degnerate
   RTIME   =   -0.100 relaxation time in fs
  (WPLASMAI=    0.000 imaginary part of plasma frequency in eV, 0.658/RTIME)
   DFIELD  = 0.0000000 0.0000000 0.0000000 field for delta impulse in time
 
  Optional k-point grid parameters
   LKPOINTS_OPT  =     F    use optional k-point grid
   KPOINTS_OPT_MODE=     1    mode for optional k-point grid
 
 Orbital magnetization related:
   ORBITALMAG=     F  switch on orbital magnetization
   LCHIMAG   =     F  perturbation theory with respect to B field
   DQ        =  0.001000  dq finite difference perturbation B field
   LLRAUG    =     F  two centre corrections for induced B field
   LBONE     =     F  B-component reconstruction in AE one-centre
   LVGVCALC  =     T  calculate vGv susceptibility
   LVGVAPPL  =     F  apply vGv susceptibility instead of pGv for G=0

 Random number generation:
   RANDOM_GENERATOR = DEFAULT
   PCG_SEED         = not used


--------------------------------------------------------------------------------------------------------


 Static calculation
 charge density and potential will be updated during run
 non-spin polarized calculation
 Variant of blocked Davidson
 Davidson routine will perform the subspace rotation
 perform sub-space diagonalisation
    after iterative eigenvector-optimisation
 modified Broyden-mixing scheme, WC =      100.0
 initial mixing is a Kerker type mixing with AMIX =  0.4000 and BMIX =      1.0000
 Hartree-type preconditioning will be used
 using additional bands           141
 reciprocal scheme for non local part
 use partial core corrections
 calculate Harris-corrections to forces 
   (improved forces if not selfconsistent)
 use gradient corrections 
 use of overlap-Matrix (Vanderbilt PP)
 Methfessel and Paxton  Order N= 1 SIGMA  =   0.20


--------------------------------------------------------------------------------------------------------


  energy-cutoff  :      520.00
  volume of cell :     1749.52
      direct lattice vectors                 reciprocal lattice vectors
    12.044405702 -0.004505072  0.000251258     0.083026109  0.000031035 -0.000001756
    -0.004506835 12.056999608  0.003663643     0.000031023  0.082939393 -0.000025204
     0.000253414  0.003660859 12.047399059    -0.000001741 -0.000025223  0.083005476

  length of vectors
    12.044406547 12.057001007 12.047399618     0.083026115  0.082939403  0.083005480


 
 k-points in units of 2pi/SCALE and weight: KPOINTS generated by db_to_vasp         
   0.00000000  0.00000000  0.00000000       0.016
   0.02075653  0.00000776 -0.00000044       0.031
   0.04151305  0.00001552 -0.00000088       0.016
   0.00000776  0.02073485 -0.00000630       0.031
   0.02076428  0.02074261 -0.00000674       0.031
   0.04152081  0.02075037 -0.00000718       0.031
  -0.02074877  0.02072709 -0.00000586       0.031
   0.00001551  0.04146970 -0.00001260       0.016
   0.02077204  0.04147746 -0.00001304       0.031
   0.04152857  0.04148521 -0.00001348       0.016
  -0.00000044 -0.00000631  0.02075137       0.031
   0.02075609  0.00000145  0.02075093       0.031
   0.04151262  0.00000921  0.02075049       0.031
  -0.02075696 -0.00001406  0.02075181       0.031
   0.00000732  0.02072854  0.02074507       0.031
   0.02076385  0.02073630  0.02074463       0.031
   0.04152037  0.02074406  0.02074419       0.031
  -0.02074921  0.02072078  0.02074551       0.031
   0.00001508  0.04146339  0.02073877       0.031
   0.02077160  0.04147115  0.02073833       0.031
   0.04152813  0.04147891  0.02073789       0.031
  -0.02074145  0.04145563  0.02073921       0.031
  -0.00000819 -0.02074115  0.02075767       0.031
   0.02074834 -0.02073340  0.02075723       0.031
   0.04150486 -0.02072564  0.02075679       0.031
  -0.02076472 -0.02074891  0.02075811       0.031
  -0.00000087 -0.00001261  0.04150274       0.016
   0.02075566 -0.00000485  0.04150230       0.031
   0.04151218  0.00000291  0.04150186       0.016
   0.00000689  0.02072224  0.04149644       0.031
   0.02076341  0.02073000  0.04149600       0.031
   0.04151994  0.02073775  0.04149556       0.031
  -0.02074964  0.02071448  0.04149688       0.031
   0.00001464  0.04145709  0.04149014       0.016
   0.02077117  0.04146484  0.04148970       0.031
   0.04152770  0.04147260  0.04148926       0.016
 
 k-points in reciprocal lattice and weights: KPOINTS generated by db_to_vasp         
   0.00000000  0.00000000  0.00000000       0.016
   0.25000000  0.00000000  0.00000000       0.031
   0.50000000  0.00000000  0.00000000       0.016
   0.00000000  0.25000000  0.00000000       0.031
   0.25000000  0.25000000  0.00000000       0.031
   0.50000000  0.25000000  0.00000000       0.031
  -0.25000000  0.25000000  0.00000000       0.031
   0.00000000  0.50000000  0.00000000       0.016
   0.25000000  0.50000000  0.00000000       0.031
   0.50000000  0.50000000  0.00000000       0.016
   0.00000000  0.00000000  0.25000000       0.031
   0.25000000  0.00000000  0.25000000       0.031
   0.50000000  0.00000000  0.25000000       0.031
  -0.25000000  0.00000000  0.25000000       0.031
   0.00000000  0.25000000  0.25000000       0.031
   0.25000000  0.25000000  0.25000000       0.031
   0.50000000  0.25000000  0.25000000       0.031
  -0.25000000  0.25000000  0.25000000       0.031
   0.00000000  0.50000000  0.25000000       0.031
   0.25000000  0.50000000  0.25000000       0.031
   0.50000000  0.50000000  0.25000000       0.031
  -0.25000000  0.50000000  0.25000000       0.031
   0.00000000 -0.25000000  0.25000000       0.031
   0.25000000 -0.25000000  0.25000000       0.031
   0.50000000 -0.25000000  0.25000000       0.031
  -0.25000000 -0.25000000  0.25000000       0.031
   0.00000000  0.00000000  0.50000000       0.016
   0.25000000  0.00000000  0.50000000       0.031
   0.50000000  0.00000000  0.50000000       0.016
   0.00000000  0.25000000  0.50000000       0.031
   0.25000000  0.25000000  0.50000000       0.031
   0.50000000  0.25000000  0.50000000       0.031
  -0.25000000  0.25000000  0.50000000       0.031
   0.00000000  0.50000000  0.50000000       0.016
   0.25000000  0.50000000  0.50000000       0.031
   0.50000000  0.50000000  0.50000000       0.016
 
 position of ions in fractional coordinates (direct lattice) 
   0.24999611  0.74884067  0.00126116
   0.74921181  0.25189829  0.25341477
   0.25052390  0.49949316  0.74840445
   0.74970608  0.99939660  0.74930283
   0.00235698  0.99829569  0.00269203
   0.12532396  0.12306812  0.12629843
   0.99719894  0.99893307  0.25044823
   0.12477299  0.12447678  0.37304007
   0.99948846  0.00011133  0.49728812
   0.11939519  0.13102005  0.61712241
   0.99753656  0.99888692  0.74966085
   0.12259466  0.12936037  0.88076897
   0.00129824  0.25004977  0.00160396
   0.12743945  0.37588688  0.12458962
   0.00213457  0.24927820  0.25199018
   0.12443693  0.37576458  0.37345505
   0.99825698  0.25038752  0.49852934
   0.12203600  0.37250161  0.62227578
   0.99983147  0.25075853  0.74948139
   0.12283642  0.37366273  0.87738275
   0.00172857  0.50137573  0.00022268
   0.12769201  0.62686081  0.12149604
   0.99981617  0.50355733  0.25093343
   0.12426370  0.62506118  0.37352617
   0.99979802  0.49998484  0.49772472
   0.12412443  0.62626812  0.62137349
   0.99942019  0.49855834  0.75109603
   0.12562768  0.62652615  0.87970383
   0.99790512  0.74758386  0.00333945
   0.12587765  0.87486059  0.12381454
   0.01000629  0.75068504  0.25015916
   0.12440159  0.87813359  0.37262994
   0.99945797  0.75157434  0.49606364
   0.11937987  0.86888369  0.61666312
   0.00134118  0.74863632  0.75070535
   0.12523566  0.86604863  0.88401452
   0.25033278  0.00016269  0.00443967
   0.37507503  0.12376116  0.12604981
   0.25040829  0.00045509  0.24888322
   0.37554856  0.12505010  0.37229509
   0.25026487  0.99991825  0.49263196
   0.38099713  0.13098687  0.61672103
   0.37757226  0.13018959  0.88099333
   0.25020647  0.25040256  0.00100352
   0.37410100  0.37624786  0.12431045
   0.25040957  0.25015833  0.24835241
   0.37616396  0.37628837  0.37312011
   0.25023383  0.25156230  0.49736590
   0.37893146  0.37316170  0.62189005
   0.25017561  0.25439107  0.74957052
   0.37766941  0.37408806  0.87733913
   0.25021647  0.49892993  0.99978827
   0.37251431  0.62664967  0.12109756
   0.25015980  0.50130252  0.24931029
   0.37644784  0.62463218  0.37314419
   0.25046407  0.50076460  0.49710086
   0.37916152  0.62630201  0.62146196
   0.37496997  0.62645679  0.87957746
   0.37440223  0.87506131  0.12369558
   0.25028588  0.75170402  0.24926817
   0.37588027  0.87843402  0.37280057
   0.25040603  0.74943362  0.49640021
   0.38077427  0.86888775  0.61630241
   0.25021674  0.74366733  0.74861657
   0.37486596  0.86570657  0.88368237
   0.49691748  0.99917229  0.00229495
   0.62337688  0.13495185  0.13493028
   0.50353206  0.99947538  0.24961366
   0.62670214  0.12650800  0.37598896
   0.50057394  0.00034137  0.49693904
   0.62430784  0.12746175  0.62180526
   0.50241762  0.99882236  0.74919029
   0.61440835  0.13416622  0.87299541
   0.49916670  0.25224435  0.00237897
   0.62341402  0.37799653  0.12689947
   0.49844787  0.25114524  0.25062129
   0.62651664  0.37618994  0.37436747
   0.50194301  0.25103665  0.49783477
   0.62636340  0.37571324  0.62482998
   0.50020764  0.25151788  0.74912708
   0.62530896  0.37646612  0.87552372
   0.49875400  0.50050794  0.00078448
   0.62904930  0.62751143  0.13081686
   0.50037119  0.50294951  0.24915516
   0.63122477  0.63465284  0.36731632
   0.50113913  0.50129751  0.49817952
   0.62338234  0.62299719  0.62322588
   0.50168302  0.50010326  0.74990475
   0.62357630  0.62079979  0.87587527
   0.50203035  0.74730541  0.00291316
   0.63120212  0.85454346  0.14571117
   0.49009215  0.75044556  0.25022061
   0.63084080  0.87130628  0.37217986
   0.50121253  0.75062375  0.49654569
[...]
   0.316E+02 -.169E+02 0.316E+02   -.316E+02 0.162E+02 -.315E+02   -.597E-02 0.670E+00 -.173E+00   0.163E-02 0.394E-02 0.512E-03
   0.233E+02 0.807E+01 -.961E+00   -.237E+02 -.774E+01 0.114E+01   0.393E+00 -.310E+00 -.189E+00   -.564E-03 -.176E-01 0.123E-01
   0.444E+02 -.429E+02 -.265E+02   -.445E+02 0.422E+02 0.263E+02   0.865E-01 0.657E+00 0.116E+00   -.416E-02 0.527E-02 0.135E-01
   0.142E+02 0.299E+01 -.131E+02   -.141E+02 -.272E+01 0.127E+02   -.154E+00 -.260E+00 0.372E+00   -.318E-02 -.149E-01 0.548E-02
   0.219E+02 0.661E+01 -.101E+02   -.220E+02 -.657E+01 0.994E+01   0.160E+00 -.388E-01 0.170E+00   -.172E-02 0.293E-03 -.306E-02
   0.264E+02 0.396E+02 0.148E+01   -.266E+02 -.391E+02 -.174E+01   0.137E+00 -.433E+00 0.277E+00   0.710E-03 -.107E-01 -.134E-01
   0.717E+01 0.278E+02 0.340E+01   -.740E+01 -.279E+02 -.334E+01   0.231E+00 0.791E-01 -.522E-01   0.189E-02 0.176E-02 -.107E-01
   -.225E+02 -.174E+02 -.197E+01   0.228E+02 0.174E+02 0.223E+01   -.265E+00 -.378E-01 -.250E+00   0.919E-02 0.117E-01 -.359E-02
   -.950E+02 -.136E+03 -.802E+02   0.943E+02 0.135E+03 0.796E+02   0.693E+00 0.483E+00 0.586E+00   0.636E-02 0.276E-01 0.614E-02
   -.210E+02 -.429E+02 -.131E+02   0.209E+02 0.429E+02 0.131E+02   0.895E-01 0.444E-01 -.305E-01   0.447E-02 0.164E-01 0.148E-01
   -.861E+02 -.113E+03 0.887E+02   0.853E+02 0.112E+03 -.878E+02   0.787E+00 0.894E+00 -.860E+00   0.427E-02 0.209E-01 0.714E-02
   -.161E+01 -.233E+02 0.945E+01   0.185E+01 0.233E+02 -.976E+01   -.240E+00 0.287E-01 0.313E+00   0.191E-02 0.124E-01 0.959E-03
   0.179E+02 -.341E+02 0.924E+01   -.180E+02 0.342E+02 -.880E+01   0.139E+00 -.844E-01 -.433E+00   -.429E-03 0.133E-01 -.812E-02
   0.569E+02 -.325E+01 0.722E+01   -.573E+02 0.319E+01 -.718E+01   0.446E+00 0.554E-01 -.262E-01   0.353E-02 0.787E-02 -.119E-01
   -.324E+01 -.479E+02 -.786E+01   0.307E+01 0.481E+02 0.736E+01   0.166E+00 -.221E+00 0.504E+00   0.551E-02 0.166E-01 -.433E-02
   -.101E+03 -.603E+02 -.313E+02   0.101E+03 0.598E+02 0.317E+02   -.208E+00 0.394E+00 -.411E+00   0.181E-01 0.183E-01 0.349E-02
   -.162E+03 0.238E+01 0.915E+01   0.161E+03 -.192E+01 -.982E+01   0.448E+00 -.461E+00 0.664E+00   0.102E-01 0.510E-02 0.716E-02
   -.131E+03 -.975E+01 -.561E+01   0.131E+03 0.923E+01 0.590E+01   0.517E-01 0.504E+00 -.297E+00   0.194E-01 0.180E-01 0.940E-02
   -.892E+02 0.899E+02 0.101E+03   0.883E+02 -.894E+02 -.100E+03   0.908E+00 -.488E+00 -.603E+00   0.375E-02 0.235E-02 -.638E-03
   -.345E+02 0.574E+00 0.262E+02   0.347E+02 -.862E+00 -.266E+02   -.211E+00 0.276E+00 0.400E+00   0.863E-02 0.115E-01 -.322E-02
   -.283E+02 -.435E+02 -.587E+02   0.278E+02 0.433E+02 0.592E+02   0.439E+00 0.259E+00 -.446E+00   0.187E-02 0.331E-02 -.113E-01
   0.910E+01 -.399E+02 0.891E+01   -.929E+01 0.395E+02 -.920E+01   0.185E+00 0.403E+00 0.298E+00   0.881E-02 0.120E-01 -.962E-02
   -.108E+03 -.131E+03 -.549E+02   0.107E+03 0.131E+03 0.542E+02   0.306E+00 0.276E+00 0.673E+00   0.429E-02 0.525E-03 0.177E-02
   0.395E+02 0.147E+03 0.117E+03   -.391E+02 -.146E+03 -.117E+03   -.356E+00 -.127E+01 -.287E+00   -.232E-02 -.250E-01 0.669E-02
   -.180E+02 0.608E+02 -.192E+02   0.180E+02 -.601E+02 0.191E+02   -.395E-01 -.725E+00 0.136E+00   -.248E-02 -.243E-01 0.901E-02
   0.796E+01 0.448E+02 -.341E+02   -.800E+01 -.447E+02 0.343E+02   0.393E-01 -.354E-01 -.128E+00   -.503E-02 -.125E-01 -.261E-02
   0.254E+02 0.690E+02 -.737E+02   -.251E+02 -.689E+02 0.736E+02   -.330E+00 -.176E+00 0.178E+00   -.389E-02 -.180E-01 -.846E-02
   0.108E+03 0.144E+03 -.222E+02   -.108E+03 -.144E+03 0.222E+02   -.141E+00 -.205E+00 0.152E-01   -.386E-02 -.181E-01 -.730E-02
   0.196E+02 0.140E+03 0.623E+02   -.197E+02 -.140E+03 -.627E+02   0.140E+00 0.308E+00 0.390E+00   -.156E-02 -.113E-01 -.207E-02
   -.361E+02 -.461E+02 -.317E+02   0.361E+02 0.456E+02 0.315E+02   -.607E-01 0.549E+00 0.219E+00   -.534E-03 0.153E-02 0.762E-02
   0.766E+01 0.267E+02 -.357E+02   -.771E+01 -.267E+02 0.356E+02   0.481E-01 0.603E-01 0.108E+00   -.311E-02 -.175E-01 0.561E-02
   -.149E+02 0.917E+01 -.926E+01   0.151E+02 -.898E+01 0.911E+01   -.158E+00 -.186E+00 0.154E+00   -.651E-02 -.279E-02 -.266E-02
   0.765E+01 0.948E+02 -.338E+02   -.768E+01 -.948E+02 0.337E+02   0.355E-01 0.241E-01 0.125E+00   -.431E-02 -.104E-01 -.109E-01
   0.138E+01 0.260E+02 0.909E+01   -.119E+01 -.261E+02 -.898E+01   -.184E+00 0.500E-01 -.945E-01   -.750E-02 0.167E-02 -.756E-02
   0.171E+02 -.577E+02 -.863E+00   -.172E+02 0.578E+02 0.576E+00   0.131E+00 -.122E+00 0.289E+00   -.122E-02 0.153E-01 -.215E-02
   0.102E+03 -.141E+03 -.825E+02   -.101E+03 0.140E+03 0.820E+02   -.749E+00 0.629E+00 0.529E+00   -.131E-01 0.241E-01 0.637E-02
   0.156E+02 -.175E+03 -.180E+02   -.157E+02 0.175E+03 0.181E+02   0.102E+00 -.220E+00 -.138E+00   0.533E-03 0.237E-01 0.104E-01
   0.927E+02 -.113E+03 0.944E+02   -.919E+02 0.112E+03 -.936E+02   -.772E+00 0.889E+00 -.821E+00   -.137E-01 0.184E-01 0.397E-02
   0.168E+02 -.407E+02 0.369E+02   -.170E+02 0.405E+02 -.372E+02   0.177E+00 0.133E+00 0.261E+00   -.578E-02 0.180E-01 -.152E-02
   0.184E+02 -.415E+01 -.156E+02   -.185E+02 0.415E+01 0.158E+02   0.121E+00 -.668E-02 -.223E+00   -.573E-02 0.101E-01 -.651E-02
   0.105E+02 -.451E+02 -.162E+02   -.103E+02 0.452E+02 0.155E+02   -.183E+00 -.144E+00 0.666E+00   -.105E-01 0.172E-01 -.339E-02
   0.810E+01 -.147E+03 -.103E+03   -.816E+01 0.147E+03 0.104E+03   0.588E-01 -.261E+00 -.226E+00   -.352E-02 0.208E-01 0.958E-02
   0.173E+03 0.112E+02 0.763E+01   -.172E+03 -.109E+02 -.829E+01   -.530E+00 -.383E+00 0.658E+00   -.181E-01 0.512E-02 0.429E-02
   0.116E+02 0.167E+03 0.111E+03   -.116E+02 -.167E+03 -.112E+03   0.218E-01 0.376E+00 0.387E+00   -.492E-02 -.270E-01 0.404E-02
   0.994E+02 0.910E+02 0.100E+03   -.986E+02 -.905E+02 -.998E+02   -.854E+00 -.521E+00 -.635E+00   -.148E-01 0.329E-02 -.956E-03
   0.189E+02 -.318E+02 0.116E+03   -.190E+02 0.318E+02 -.116E+03   0.148E+00 -.483E-01 0.341E+00   -.686E-02 0.126E-01 -.100E-01
   0.402E+02 -.470E+02 -.572E+02   -.398E+02 0.466E+02 0.576E+02   -.333E+00 0.409E+00 -.366E+00   -.610E-02 0.567E-02 -.690E-02
   0.208E+02 -.108E+03 -.406E+02   -.210E+02 0.108E+03 0.407E+02   0.208E+00 -.189E+00 -.491E-01   -.428E-02 0.126E-01 -.432E-02
   0.119E+03 -.128E+03 -.524E+02   -.118E+03 0.127E+03 0.518E+02   -.242E+00 0.244E+00 0.573E+00   -.786E-02 0.108E-02 -.507E-03
   -.217E+02 -.279E+02 0.389E+02   0.217E+02 0.275E+02 -.388E+02   -.992E-02 0.376E+00 -.128E+00   -.119E-02 0.305E-02 0.330E-02
   -.590E+01 -.353E+02 0.162E+02   0.601E+01 0.352E+02 -.158E+02   -.980E-01 0.459E-01 -.331E+00   -.103E-01 0.191E-01 -.627E-02
   -.443E+01 -.590E+01 0.440E+01   0.443E+01 0.594E+01 -.421E+01   0.344E-02 -.361E-01 -.172E+00   0.321E-02 -.449E-02 -.170E-01
   0.114E+02 0.562E+02 0.460E+02   -.113E+02 -.561E+02 -.460E+02   -.823E-01 -.117E+00 0.259E-02   -.380E-02 -.254E-01 0.109E-01
 -----------------------------------------------------------------------------------------------
   -.224E+00 0.240E+00 -.365E+00   0.256E-11 -.391E-12 -.334E-12   0.224E+00 -.245E+00 0.356E+00   0.328E-02 0.633E-02 0.459E-02
 
 
 POSITION                                       TOTAL-FORCE (eV/Angst)
 -----------------------------------------------------------------------------------
      3.00768      9.02765      0.01800        -0.000216      0.000183     -0.000419
      9.02274      3.03469      3.05410         0.000215      0.000481      0.000197
      3.01535      6.02400      9.01822        -0.000228     -0.000184      0.000083
      9.02545     12.04909      9.03100        -0.000155     -0.000178      0.000490
      0.02389     12.03645      0.03609         0.000564      0.000242      0.000191
      1.50893      1.48373      1.52205         0.000259      0.000617     -0.000019
     12.00623     12.04056      3.02116         0.000523     -0.000049      0.000473
      1.50235      1.50162      4.49465         0.000050      0.000554     -0.000124
     12.03837     -0.00134      5.99128         0.000091     -0.000113      0.000366
      1.43761      1.58143      7.43523         0.000042      0.000358      0.000477
     12.01042     12.04183      9.03537         0.000515      0.000354      0.000541
      1.47622      1.56237     10.61148         0.000146      0.000547      0.000477
      0.01451      3.01485      0.02024         0.000332     -0.000023     -0.000605
      1.53327      4.53195      1.50239        -0.000042     -0.000027     -0.000428
      0.02465      3.00646      3.03674        -0.000139      0.000445     -0.000077
      1.49717      4.53140      4.50057        -0.000425      0.000154     -0.000696
     12.02241      3.01625      6.00715        -0.000302      0.000403     -0.000090
      1.46833      4.49298      7.49820        -0.000498     -0.000029     -0.000453
     12.04144      3.02163      9.03047         0.000134      0.000272      0.000073
      1.47803      4.50791     10.57158        -0.000377     -0.000165     -0.000311
      0.01856      6.04508      0.00452         0.000242      0.000434     -0.000824
      1.53518      7.55793      1.46604         0.000087      0.000478     -0.000441
     12.03999      6.06780      3.02519        -0.000237      0.000088     -0.000704
      1.49396      7.53717      4.50234        -0.000563      0.000535     -0.000715
     12.03985      6.02563      5.99837        -0.000774      0.000141     -0.000814
      1.49234      7.55263      7.48826        -0.000734      0.000552     -0.000722
     12.03537      6.00936      9.05083        -0.000243      0.000157     -0.000620
      1.51051      7.55668     10.60047        -0.000241      0.000416     -0.000276
     12.01581      9.00913      0.04322         0.000637     -0.000089     -0.000255
      1.51221     10.54808      1.49488         0.000526     -0.000180      0.000271
      0.11720      9.05188      3.01652         0.000536     -0.000033     -0.000002
      1.49448     10.58846      4.49247         0.000094     -0.000371      0.000021
     12.03462      9.05904      5.97928        -0.000374      0.000244     -0.000332
      1.43410     10.47785      7.43240         0.000077     -0.000034      0.000397
      0.01297      9.02905      9.04679        -0.000037     -0.000006     -0.000270
      1.50471     10.44462     10.65328         0.000131     -0.000016      0.000577
      3.01511      0.00085      0.05355         0.000004      0.000247      0.000004
      4.51703      1.49096      1.51912         0.000094      0.000494      0.000292
      3.01608      0.00527      2.99846        -0.000049      0.000056      0.000108
      4.52279      1.50740      4.48574         0.000092      0.000344      0.000172
      3.00991     12.05669      5.93866        -0.000122     -0.000050      0.000842
      4.58845      1.57985      7.43046         0.000178      0.000263      0.000796
      4.54727      1.57122     10.61425         0.000005      0.000355      0.000594
      3.01246      3.01798      0.01307        -0.000138      0.000229     -0.000392
      4.50416      4.53519      1.49909         0.000162     -0.000357     -0.000227
      3.01497      3.01594      2.99298        -0.000106      0.000340     -0.000173
      4.52907      4.53658      4.49660        -0.000018     -0.000326     -0.000513
      3.01291      3.03378      5.99295        -0.000451      0.000380      0.000101
      4.56248      4.49978      7.49362        -0.000182     -0.000383     -0.000150
      3.01226      3.06881      9.03137        -0.000352      0.000089      0.000162
      4.54734      4.51189     10.57112        -0.000164     -0.000346     -0.000208
      3.01171      6.01813     12.04674        -0.000058      0.000043     -0.000538
      4.48392      7.55428      1.46130         0.000038      0.000194     -0.000348
      3.01083      6.04399      3.00544        -0.000026      0.000040     -0.000815
      4.53137      7.53086      4.49780         0.000253      0.000218     -0.000505
      3.01456      6.03841      5.99067        -0.000442     -0.000059     -0.000222
      4.56411      7.55189      7.48939         0.000013      0.000178     -0.000186
      4.51369      7.55472     10.59901        -0.000005      0.000063     -0.000298
      4.50554     10.54938      1.49351         0.000013     -0.000385      0.000352
      3.01122      9.06308      3.00585        -0.000103      0.000076     -0.000253
      4.52339     10.59095      4.49459         0.000074     -0.000561      0.000291
      3.01274      9.03661      5.98314        -0.000095      0.000025      0.000048
      4.58244     10.47672      7.42812         0.000187     -0.000331      0.000713
      3.01055      8.96801      9.02167        -0.000064      0.000075      0.000294
      4.51136     10.43937     10.64934         0.000222     -0.000262      0.000708
      5.98057     12.04479      0.03143         0.000395     -0.000085      0.000436
      7.50763      1.62480      1.62621         0.000349      0.000693      0.000783
      6.06030     12.04932      3.01098         0.000223     -0.000153      0.000658
      7.54778      1.52386      4.53031         0.000028      0.000549      0.000119
      6.02924      0.00368      5.98695         0.000169     -0.000269      0.000986
      7.51900      1.53627      7.49176        -0.000619     -0.000002      0.000827
      6.04701     12.04328      9.02958        -0.000193      0.000005      0.000839
      7.39980      1.61807     10.51797         0.000012     -0.000204      0.000628
      6.01103      3.03907      0.02971        -0.000028     -0.000033     -0.000092
      7.50698      4.55516      1.53035        -0.000138     -0.000769      0.000003
      6.00244      3.02673      3.02038         0.000416      0.000328      0.000131
      7.54442      4.53427      4.51169        -0.000029     -0.000748     -0.000718
      6.04460      3.02631      5.99866         0.000163      0.000050      0.000236
      7.54264      4.52944      7.52911        -0.000845     -0.000428     -0.000353
      6.02376      3.03304      9.02608        -0.000471     -0.000294      0.000305
      7.53000      4.53944     10.54932        -0.000841     -0.000493      0.000065
      6.00494      6.03238      0.01141        -0.000084     -0.000186     -0.000363
      7.57373      7.56355      1.57846        -0.000372     -0.000085     -0.000172
      6.02447      6.06272      3.00364         0.000518     -0.000292     -0.000460
      7.59996      7.65051      4.42769        -0.000183     -0.000120     -0.000144
      6.03379      6.04371      6.00373         0.000354     -0.000240     -0.000205
      7.50562      7.51095      7.51069        -0.000469      0.000090     -0.000253
      6.04041      6.03023      9.03636        -0.000364     -0.000211     -0.000452
      7.50803      7.48538     10.55445        -0.000599      0.000009     -0.000492
      6.04329      9.00801      0.03796        -0.000037     -0.000409      0.000061
      7.59864     10.30092      1.75873        -0.000113     -0.000397      0.000637
      5.89955      9.04683      3.01738         0.000047     -0.000563      0.000162
      7.59427     10.50386      4.48715        -0.000010     -0.000645      0.000705
      6.03355      9.04983      5.98496         0.000580     -0.000301      0.000184
      7.49194     10.54530      7.47372        -0.000174     -0.000736      0.000819
      6.01311      9.01490      9.03071         0.000031     -0.000371      0.000050
      7.38358     10.42240     10.50498         0.000080     -0.000248      0.000214
     10.56835      1.56244      1.61703         0.000272      0.000888      0.000590
     10.52351      1.51504      4.53578        -0.000018      0.000722     -0.000020
      9.03592      0.00016      6.01811         0.000121     -0.000329      0.000410
     10.54967      1.52637      7.49788         0.000059      0.000222      0.000441
     10.65883      1.60214     10.52467         0.000070      0.000234      0.000419
      9.01909      3.04423      0.00274        -0.000030     -0.000135      0.000046
     10.50754      4.52801      4.54103        -0.000288     -0.000166     -0.000928
      9.03123      3.03094      6.04863        -0.000134      0.000081     -0.000243
     10.51411      4.49638      7.53496        -0.000062     -0.000032     -0.000742
      9.03032      3.00615      9.04500        -0.000262      0.000008      0.000101
     10.52643      4.53104     10.53145         0.000176     -0.000239     -0.000117
      9.01324      6.04513      0.02668        -0.000075      0.000114     -0.000316
     10.46447      7.59432      1.59126         0.000801      0.000110     -0.000331
      9.00676      5.99284      3.04069         0.000025     -0.000100     -0.000677
     10.44010      7.65481      4.40858        -0.000072      0.000547     -0.000621
      9.01062      6.04616      5.98626        -0.000348     -0.000358     -0.000727
      9.01540      6.00539      9.04395        -0.000129     -0.000215     -0.000841
     10.54533      7.48648     10.57767         0.000276      0.000321     -0.000330
      9.02950      8.95560     11.95680         0.000224     -0.000478     -0.000250
     10.48014     10.33397      1.73955         0.000757     -0.000702      0.001016
      9.03695      0.08189      3.09738         0.000402      0.000093      0.001083
     10.46222     10.49415      4.48317         0.000634     -0.000460      0.000652
      9.01244      9.06658      6.10327         0.000001     -0.000208     -0.000218
     10.57024     10.57024      7.47736         0.000172     -0.000500      0.000376
      9.01993      9.03548      9.04879         0.000118     -0.000233     -0.000276
     10.67196     10.43062     10.51252         0.000338     -0.000070      0.000023
     10.53198      4.54046      1.53323        -0.000291     -0.000499      0.000351
     10.52912      7.51784      7.51751         0.000441      0.000609     -0.000120
      3.01134     12.04246      9.00007         0.000109      0.000308      0.000431
      9.01121     11.99466      0.07283         0.000343      0.000215     -0.000413
 -----------------------------------------------------------------------------------
    total drift:                                0.003290      0.001501     -0.004780


--------------------------------------------------------------------------------------------------------



  FREE ENERGIE OF THE ION-ELECTRON SYSTEM (eV)
  ---------------------------------------------------
  free  energy   TOTEN  =     -1139.00854802 eV

  energy  without entropy=    -1138.90641293  energy(sigma->0) =    -1138.97450299
 


--------------------------------------------------------------------------------------------------------


    POTLOK:  cpu time      0.1537: real time      0.0692


--------------------------------------------------------------------------------------------------------


     LOOP+:  cpu time   3851.4473: real time   3850.0795
    4ORBIT:  cpu time      0.0000: real time      0.0000

 total amount of memory used by VASP MPI-rank0  7558701. kBytes
=======================================================================

   base      :      30000. kBytes
   nonl-proj :    1318104. kBytes
   fftplans  :      52431. kBytes
   grid      :     146966. kBytes
   one-center:       1975. kBytes
   wavefun   :    6009225. kBytes
 
  
  
 General timing and accounting informations for this job:
 ========================================================
  
                  Total CPU time used (sec):     3941.171
                            User time (sec):     3276.340
                          System time (sec):      664.831
                         Elapsed time (sec):     3937.190
  
                   Maximum memory used (kb):     9611260.
                   Average memory used (kb):          N/A
  
                          Minor page faults:      1395124
                          Major page faults:           11
                 Voluntary context switches:       744956
