127
Lattice="12.13407612154073 -0.002448297464165054 0.003365587388845699 -0.0024481550187637523 12.149112329652313 -0.004020308910634898 0.003365621958249256 -0.0040202511867883746 12.142100690539106" Properties=species:S:1:pos:R:3:forces:R:3 energy=-1142.676439250211 free_energy=-1142.676439250211 stress="-0.0020038441700812814 -0.0003977354674650071 -0.000488118111898701 -0.0003977354674650071 -0.0017648594455649273 0.0007358001377989294 -0.000488118111898701 0.0007358001377989294 -0.003887564831298378" pbc="T T T"
Cr      -0.01036736       2.97624116       9.10192101      -0.00043087      -0.00215047       0.00159562
Cr       1.52770217      10.64349580      10.63105682       0.00023731       0.00241025      -0.00204230
Cr       7.60324887       1.52614006      10.58142509      -0.00310527       0.00140340      -0.00109355
Cr      10.63899808       1.54433375       4.54916116      -0.00251691      -0.00078406      -0.00064538
Cr       9.10698158       0.02519745       9.14207639      -0.00070368      -0.00092891      -0.00114198
Cr       9.10209494       6.05201916       6.03551427      -0.00426954       0.00348020       0.00017288
Ti       0.04770352       0.02839500       6.04107958       0.00155741       0.00102169      -0.00017379
Ti       4.53982758      10.64858326      10.57519732      -0.00039537      -0.00292507      -0.00501651
Ti       7.58541371       1.50747555       7.59311719       0.00106280      -0.00154572       0.00307755
Ti       7.64629704       4.51079291       7.56377383      -0.00665736       0.00028833       0.00209324
Ti       6.14081512       9.14714965      -0.02575493       0.00373468      -0.00237979      -0.00286664
Ti      10.62339666       1.51908853       1.43242117      -0.00045265      -0.00605409       0.00017201
Ti       9.05834180       3.02297011       3.03563803       0.00336687       0.00142628      -0.00241626
Ti      10.60835021       4.59843720       4.55772269      -0.00136122       0.00590136       0.00050590
Ti       9.08125892       6.02407664       0.02784125       0.00266368       0.00248493      -0.00304394
Ti      10.63484580       7.42154975       7.58200258      -0.00191827       0.00079352       0.00351547
Ti       9.04392751       9.10738401       9.15250057      -0.00241167       0.00005977       0.00255733
V        0.03424065      -0.03513995      -0.08284376      -0.00106988      -0.00234730      -0.00197554
V        1.42829695       1.57051458       1.45481607      -0.00400851      -0.00158736       0.00143492
V       -0.06693523       0.06437060       3.08282251      -0.00202781      -0.00283053       0.00091324
V        1.59789581       1.79633629       4.77998191      -0.00232975       0.00204029      -0.00078884
V        1.60355917       1.54432750       7.60259163       0.00321756      -0.00427012       0.00041694
V        0.02343240       0.01269722       9.11401398       0.00039828       0.00161636      -0.00031089
V        1.46948888       1.49277769      10.57698612      -0.00207723      -0.00026140       0.00309120
V        0.00732353       3.05268184      -0.01387540      -0.00176500      -0.00100249       0.00024863
V        1.48859565       4.54768913       1.50256902      -0.00294719      -0.00208132       0.00411825
V        0.02297538       3.02663924       3.06436180      -0.00402603      -0.00108410       0.00119715
V        1.50020797       4.54144590       4.63035775      -0.00566118      -0.00441033       0.00770369
V       -0.10374882       2.94783392       6.08937684      -0.00900338      -0.00496009      -0.00122697
V        1.44062162       4.22643981       7.66304745       0.00852985      -0.02664874      -0.00447617
V       -0.03531361       6.06818893       0.01863906       0.00091591       0.00031920       0.00033865
V        1.55851936       7.56234162       1.43704056       0.00107209       0.00415397       0.00029082
V        0.03821879       6.06040461       3.00676399       0.00104764       0.00327922       0.00557543
V        1.55721347       7.45596979       4.61750846       0.00853316      -0.00673791       0.01021991
V        0.01825497       5.96359108       6.09337538       0.00229707       0.00344560       0.00369400
V        1.38933275       7.71953656       7.76265883       0.00322234       0.00499906      -0.00423857
V        0.00816961       5.98071998       9.15207999       0.00809767      -0.00213368      -0.00669390
V        1.51758362       7.57850199      10.67196579      -0.00087786       0.00189004      -0.00078171
V       -0.00117317       9.12431255      -0.01427517      -0.00053831      -0.00087810       0.00178579
V        1.53928807      10.61177989       1.36231850      -0.00032091      -0.00175420      -0.00332812
V        1.65690181      10.42758730       4.76300310       0.00320450       0.00208059       0.00373028
V        0.06548756       9.13938220       6.08428271      -0.00189523       0.00234636       0.00547416
V        1.56556648      10.62189989       7.64315132       0.00170943       0.00445030       0.00016778
V        2.97081375       0.00866661      -0.02469052      -0.00066500       0.00022372      -0.00188221
V        4.53136750       1.50748242       1.40227203      -0.00422266      -0.00031968      -0.00248354
V        4.54374987       1.66914356       4.74638948      -0.00548917       0.01229052       0.00670547
V        3.07046014      -0.10497516       6.17279009       0.00379868       0.00340781      -0.00318847
V        4.50572585       1.53574263       7.56693751       0.00160947      -0.00182830       0.00601795
V        2.98759586      -0.00510846       9.08317188       0.00205687       0.00171391       0.00072967
V        4.52586937       1.47013632      10.58552564      -0.00027820       0.00094629       0.00388783
V        3.01459060       2.99509139      -0.02429070      -0.00240728       0.00279933       0.00554041
V        4.55556063       4.56690606       1.40609433       0.00376371      -0.00106138       0.00233210
V        5.22451215       4.34853392       3.94401485       0.01975353      -0.01538630      -0.00408542
V        3.96134177       5.54178472       5.27358533       0.01393963       0.04675632      -0.03873270
V        4.51135112       4.45765757       7.61658835      -0.00696132      -0.00812235      -0.00268520
V        3.06599380       2.95503975       9.18305706       0.00187865      -0.00342195       0.01181358
V        4.54292211       4.51623582      10.60419973       0.00040133       0.00478396       0.00480933
V        3.00267237       6.07217801      -0.03294815       0.00124035       0.00264222       0.00193691
V        4.50592723       7.66574269       1.40402428       0.00230735       0.00369162       0.00443222
V        2.50077275       6.20930241       6.63361496      -0.00255821      -0.02288035       0.01752686
V        3.02468135       6.00975750       9.18896054      -0.00019513       0.00024607       0.00515037
V        4.50721840       7.59871120      10.59397777       0.00106991       0.00281692      -0.00190272
V        2.98963681       9.12655536      -0.00221503       0.00201923       0.00053784      -0.00227127
V        4.54375566      10.61514155       1.47969356       0.00110177      -0.00024151      -0.00157981
V        3.21767013       8.98841338       3.10488785      -0.01244109       0.00992740      -0.01327668
V        4.61516286      10.62147445       4.61504625       0.00075357      -0.00492382      -0.00346535
V        3.09316001       8.99871499       6.07879067      -0.00057282      -0.00259239       0.00007676
V        4.55944562      10.59781747       7.59497080       0.00180789       0.00130568      -0.00404272
V        3.01853397       9.11540166       9.12816363       0.00058596      -0.00025969      -0.00388725
V        6.10036623       0.04025915      -0.03835985      -0.00448829      -0.00361522      -0.00127557
V        7.60148877       1.44844848       1.41019354       0.00602961      -0.00533553      -0.00855701
V        6.06890144      -0.03407464       3.01597048      -0.00146087      -0.00060930       0.00060819
V        7.54791560       1.46391596       4.62123540      -0.00098705       0.00595395       0.00170042
V        6.00517636      -0.01737673       6.05300529      -0.00055281       0.00466179      -0.00288173
V        6.06676312       0.04777780       9.10810481      -0.00047044      -0.00042230       0.00002987
V        6.06381142       3.00153372      -0.06953530       0.00183900       0.00248225      -0.00323265
V        7.40932413       4.60257255       1.62272033       0.00999894      -0.00114007      -0.00876499
V        6.19897827       2.71452518       2.84118510       0.00817695      -0.00891964      -0.02046754
V        7.69963591       4.66233889       4.59695895       0.00651556       0.00205989       0.00513029
V        6.07033167       3.10647881       6.01160526       0.00110094      -0.00517212       0.01028100
V        6.00920857       2.99682194       9.15440597      -0.00197200       0.00121230       0.00346429
V        7.55257396       4.49856469      10.59220356       0.00054394       0.00370299      -0.00354812
V        7.60156848       7.66441541       1.56256642      -0.00059576      -0.00089393       0.00509866
V        5.91927125       6.58230851       3.18701450      -0.02026829      -0.00305491       0.02095516
V        7.67908952       7.61694654       4.50547719      -0.00901003      -0.00270701       0.00243165
V        6.18741551       6.12750791       6.05317733      -0.00777991      -0.01189201       0.00441953
V        7.56967841       7.43700817       7.56949165      -0.00586363       0.00291145      -0.00500313
V        6.03724502       6.02583181       9.09109945      -0.00629630       0.00255586      -0.00164453
V        7.53124374       7.52350793      10.57121057      -0.00053555      -0.00253678      -0.00478478
V        7.61697489      10.68212737       1.50048189      -0.00003078      -0.00319440      -0.00016095
V        6.06172378       9.19504924       3.01836081       0.00120267      -0.00145242       0.00037226
V        7.50150372      10.70978091       4.46951317       0.00064831       0.00355568      -0.00126528
V        5.98863032       9.03668005       5.93801627       0.00957418       0.01138205       0.01362856
V        7.49832711      10.80195276       7.65042539       0.00267734       0.00028752      -0.00268863
V        6.10951400       9.08945560       9.03339975      -0.00265857      -0.00118171      -0.00673975
V        7.59424412      10.74607936      10.57194633      -0.00304429       0.00219859      -0.00121866
V        9.03274269       0.03225797      -0.06240645      -0.00216682      -0.00263166      -0.00240751
V        9.09428031       0.02318844       3.04957127       0.00088511      -0.00239597       0.00343580
V        9.14126602       0.06227442       6.01519263       0.00018501       0.00055268       0.00021705
V       10.59543341       1.50924225       7.68433998      -0.00091080      -0.00128815       0.00035737
V       10.62238634       1.51351980      10.58660726      -0.00265920       0.00031545      -0.00135790
V        9.03689991       3.06114813      -0.04912835       0.00184377      -0.00005878      -0.00477208
V       10.68155926       4.54562643       1.54286195       0.00004936       0.00040830      -0.00242300
V        9.19148030       2.89557598       5.99044140      -0.00152105       0.00469021       0.00328801
V       10.63244341       4.47194897       7.62493969       0.00067327       0.00168066      -0.00064541
V        9.12388942       2.99542011       9.20155483       0.00070577       0.00362034      -0.00301637
V       10.63548167       4.46652396      10.60685235       0.00181495       0.00096643      -0.00283998
V       10.58389316       7.57573843       1.49914028       0.00295599       0.00218705       0.00212312
V        9.05625431       6.12947991       2.96553922       0.00334947       0.00349000      -0.00064776
V       10.59153213       7.42552364       4.57012562       0.00056417       0.00378854       0.00080612
V        9.10522843       6.01876406       9.22930429      -0.00156106      -0.00055523      -0.00264806
V       10.66346191       7.55858497      10.66093026       0.00018928      -0.00111135      -0.00007181
V        9.09029529       9.12963544      -0.00914379       0.00073830      -0.00000346      -0.00017222
V       10.55298746      10.72245676       1.43141901       0.00124391      -0.00354780       0.00101043
V        9.07346252       9.17043369       2.97351122       0.00120557      -0.00240667      -0.00121643
V       10.57022940      10.77684013       4.46042655       0.00202342      -0.00243305       0.00546790
V       10.63566457      10.80715772       7.71994097      -0.00047754      -0.00090705      -0.00085317
V       10.58483574      10.71333996      10.64270849      -0.00121668      -0.00101952      -0.00013508
W        1.49166956       4.50173020      10.62141037      -0.00017088      -0.00054669       0.00339956
W       -0.01888517       9.16761975       9.18784767      -0.00166591       0.00232612       0.00173013
W        3.06807207       3.11830787       3.00361299       0.00113037       0.00521683       0.00674793
W        3.06407341       6.10976192       2.94586304      -0.00498119      -0.00490988      -0.00974786
W        4.54928665       7.51926980       7.60215233      -0.00380220      -0.00411024      -0.00586621
W        6.05447093       6.10396939      -0.00568746       0.00083661       0.00322269       0.00167302
Zr       0.04256541       9.14125112       3.04609600       0.00557621       0.00027244       0.00681880
Zr       2.94810756       0.00238700       3.13535339      -0.00073456       0.00240799      -0.00024590
Zr       9.09937852       9.21674567       6.07783639      -0.00078968      -0.00124400      -0.00320100
