127
Lattice="12.13407612154073 -0.002448297464165054 0.003365587388845699 -0.0024481550187637523 12.149112329652313 -0.004020308910634898 0.003365621958249256 -0.0040202511867883746 12.142100690539106" Properties=species:S:1:pos:R:3:forces:R:3 energy=-1144.1266439512258 free_energy=-1144.1266439512258 stress="-0.0003879846266191672 8.803628875656039e-05 -0.001367013208164756 8.803628875656039e-05 -0.00010646463592241719 6.130905032942095e-05 -0.001367013208164756 6.130905032942095e-05 -0.002556455133333382" pbc="T T T"
Cr      -0.00980608       2.98448481       9.10171952       0.00484733       0.01811551      -0.00496876
Cr       1.52699920      10.64580187      10.63007834      -0.00459424      -0.00494980      -0.00546654
Cr       7.60818934       1.52505305      10.58288942       0.00162212      -0.00148928       0.01410128
Cr      10.64398938       1.54413441       4.54897043       0.01448397       0.00157563       0.00526634
Cr       9.10815730       0.02876081       9.14101158       0.00393876      -0.00237347       0.00658808
Cr       9.10134362       6.06031174       6.02897033       0.00185353       0.01451544      -0.02843024
Ti       0.04969988       0.02570494       6.04141346       0.01407736      -0.00443033       0.00542154
Ti       4.54000178      10.65227814      10.58112801       0.00502576       0.00775097       0.00900866
Ti       7.58937220       1.50168152       7.59064849       0.01346365      -0.01277546       0.00099005
Ti       7.65658005       4.51007982       7.56526713       0.02968592      -0.00859101      -0.00545269
Ti       6.13010014       9.13781217      -0.01096534      -0.02510109      -0.00962728       0.02758644
Ti      10.62358708       1.51654881       1.42718981      -0.01035938       0.00014508      -0.00900774
Ti       9.06784276       3.01848206       3.03757463       0.01571678       0.00058349       0.00630840
Ti      10.60461702       4.59827586       4.56626385       0.00021569       0.00183795       0.01129394
Ti       9.08398972       6.03033456       0.02797842       0.00235438      -0.00124711       0.00070280
Ti      10.62993852       7.42596714       7.58419562      -0.01840854       0.00558965       0.00853913
Ti       9.04642734       9.11102566       9.15777920       0.00864660       0.00388403       0.00951757
V        0.03522785      -0.03289378      -0.08609935      -0.00280078       0.00208328      -0.00821045
V        1.43061388       1.56765823       1.45216746       0.00221093      -0.01453604      -0.01741436
V       -0.07359039       0.06654985       3.08293318      -0.01746355       0.00408261       0.00746236
V        1.61084221       1.79369827       4.79469476       0.03490114      -0.01447971       0.02501678
V        1.60761545       1.55108881       7.60091526       0.01834443       0.02560433      -0.01089900
V        0.02270442       0.01681893       9.11334595       0.00261019      -0.00298845      -0.00214174
V        1.47104417       1.49669398      10.57292362       0.00448773       0.00659245      -0.01801299
V        0.00757938       3.05745382      -0.01795884       0.00182674       0.00155548      -0.01110076
V        1.48058151       4.54665433       1.48988291      -0.01108973      -0.01206808      -0.02835715
V        0.02531500       3.03253491       3.06999072       0.00704977       0.00904109       0.00488916
V        1.57940614       4.52051958       4.62960655       0.16278603      -0.04835284      -0.00769547
V       -0.09526827       2.95569677       6.08967766       0.02724512       0.01905862      -0.00038476
V        1.41104533       4.27184989       7.68817059      -0.06612464       0.12077083       0.05135204
V       -0.03890890       6.07987574       0.01991861      -0.00055843       0.01300758       0.00885866
V        1.54139315       7.57504999       1.43637698      -0.02930850       0.01308050       0.01006680
V        0.01871395       6.05863447       3.01024888      -0.03410970      -0.00862174       0.00575925
V        1.54424489       7.45074358       4.63865296      -0.03289875      -0.01055507       0.04113187
V        0.04230989       5.96726171       6.09093212       0.03462125       0.00993079      -0.00790008
V        1.41768525       7.65469750       7.73012380       0.03843591      -0.13075330      -0.04708214
V       -0.00157731       5.99903036       9.16527654      -0.03888876       0.03343458       0.04167135
V        1.51403170       7.58652631      10.67383376      -0.00934331       0.00826435       0.00781011
V       -0.00441930       9.13267027      -0.01658013      -0.00614509       0.00408044      -0.00465416
V        1.53991871      10.61143864       1.36609529      -0.00014916      -0.01342820      -0.00695591
V        1.65486029      10.41835468       4.76018891      -0.00941857      -0.02891045       0.00404144
V        0.06572810       9.13328778       6.09855741      -0.00577039      -0.01558904       0.03118637
V        1.56022417      10.61498440       7.64498306      -0.00556144      -0.02078857       0.00665562
V        2.97016274       0.00413227      -0.02586816       0.00131310      -0.01515191      -0.00319962
V        4.56002789       1.49943599       1.40382191       0.06399627      -0.01938279       0.01390607
V        4.55470730       1.64490824       4.73967282       0.02954451      -0.06091504      -0.03912092
V        3.06917745      -0.11805880       6.17521501       0.00686424      -0.02317570       0.00209334
V        4.50374296       1.52812303       7.55856015       0.00116943      -0.00660629      -0.02285940
V        2.98342926      -0.00572984       9.08184223      -0.00001179       0.00059160      -0.01174712
V        4.52555736       1.46937169      10.58035526      -0.00599573       0.00039045      -0.01003666
V        3.02317260       2.99293787      -0.04036003       0.01871723      -0.01074551      -0.04268093
V        4.56755087       4.54121855       1.42214057       0.01801167      -0.04667570       0.03129211
V        4.98358500       4.35082714       4.18604371      -0.52096629       0.02742166       0.50401977
V        4.19012137       6.48454883       5.02724811       0.46985808       1.91939986      -0.48614837
V        4.50582914       4.43906619       7.50510484       0.00052187      -0.02585231      -0.21450882
V        3.07052513       2.96734355       9.16445325       0.00864809       0.03466395      -0.04888016
V        4.54023453       4.50994093      10.59818867      -0.00943246      -0.01158490      -0.01523631
V        3.00873022       6.07755632      -0.04382899       0.01505675       0.00701864      -0.02034147
V        4.49741760       7.62088202       1.44608216      -0.00979678      -0.09524473       0.08833444
V        2.59629793       6.02994310       6.56783679       0.19402990      -0.36955049      -0.15737543
V        3.02620006       6.00921606       9.17649776       0.00351513       0.00745533      -0.02639091
V        4.50357690       7.59925476      10.60175346      -0.01159963       0.00572024       0.01408806
V        2.99402146       9.12127080       0.00663537       0.01150218      -0.02070399       0.01914523
V        4.54920021      10.60263939       1.48719840       0.01339103      -0.01860714       0.01545307
V        3.17827653       8.97925884       3.10854444      -0.06082098      -0.02312933       0.02290892
V        4.60824280      10.58279135       4.62532162      -0.00890081      -0.07504602       0.02087101
V        3.06223055       8.98060584       6.11614553      -0.06737690      -0.03364346       0.08495902
V        4.55978155      10.59496615       7.60440051       0.00760299      -0.00528395       0.02051367
V        3.00423185       9.11319344       9.14051883      -0.03601421      -0.00731076       0.02522402
V        6.10420235       0.04082909      -0.03219498       0.00345826       0.01046649       0.01972164
V        7.57760682       1.46859064       1.43380843      -0.07354687       0.06391756       0.07320240
V        6.06951652      -0.04033165       3.01131333       0.00003523       0.00627436      -0.00670639
V        7.54634807       1.45295092       4.59459932       0.00009414      -0.01839553      -0.05071545
V        6.00459191      -0.03639681       6.04987283      -0.00005992      -0.03415442      -0.00706421
V        6.06831335       0.05371729       9.11107120       0.00058792       0.01410292       0.00813640
V        6.06607014       2.99782042      -0.07417326      -0.00918623      -0.00317968       0.00179269
V        7.45547172       4.57813929       1.57965109       0.07491069      -0.03703778      -0.07684226
V        6.16697484       2.83356212       2.90402915      -0.07045926       0.27999994       0.15678790
V        7.67690729       4.63449465       4.58623434      -0.05274764      -0.06100573      -0.03126556
V        6.12207491       3.04188581       6.00354965       0.10498416      -0.13051246      -0.02011456
V        5.99641728       3.00213517       9.13717515      -0.02431499       0.01421599      -0.03519268
V        7.55352864       4.49994046      10.58713158      -0.00422084      -0.00302590      -0.00727303
V        7.58785544       7.65209606       1.58182141      -0.01754678      -0.00515739       0.02261066
V        6.02157211       6.34436191       3.08893669       0.20885003      -0.46531783      -0.19488822
V        7.62559246       7.56887486       4.52647814      -0.09896110      -0.09128786       0.02762675
V        6.18282659       6.03151383       6.11662247      -0.00954421      -0.19342967       0.11514171
V        7.56520775       7.45097755       7.58700454      -0.00828774       0.02140464       0.01968067
V        6.03164585       6.01618983       9.10221232      -0.01188333      -0.02082766       0.01668892
V        7.53123694       7.52900298      10.58085013       0.00350760       0.01185986       0.01427155
V        7.61294497      10.68172756       1.50272188      -0.00928709       0.02076973       0.00634458
V        6.04606869       9.15306019       3.03065311      -0.02197743      -0.07113663       0.01630380
V        7.48719561      10.69617165       4.45830207      -0.02713061      -0.01580086      -0.02374553
V        5.98305142       9.03110762       5.99076692      -0.01369761      -0.01849980       0.08838776
V        7.49599499      10.79901850       7.65249016      -0.00639990      -0.00547673       0.01759648
V        6.11264618       9.09210634       9.04735640       0.01739156       0.00569992       0.02460676
V        7.59196563      10.74628074      10.57901516       0.00445889       0.00191461       0.01900615
V        9.03177336       0.03147090      -0.06518206      -0.00763740       0.00487694       0.00779369
V        9.08533009       0.02087919       3.04358973      -0.01532442       0.01110521      -0.00561954
V        9.14299821       0.05550309       6.01201014       0.00709184      -0.01176021       0.00426272
V       10.59901027       1.51308890       7.68261100       0.01523032       0.00671251      -0.00062363
V       10.62245090       1.52076144      10.58441134      -0.00288432      -0.00408983      -0.00026021
V        9.03685651       3.06439747      -0.05090765      -0.01229893       0.00256976       0.00747921
V       10.68261434       4.54821264       1.54259822       0.00985537      -0.00241609      -0.00170796
V        9.20136753       2.89189250       5.98513291       0.02950990      -0.01151803      -0.01948477
V       10.63310368       4.48138707       7.62151144       0.00070665       0.01185982      -0.00070087
V        9.12860121       2.99944732       9.19940432       0.00303886      -0.00288500      -0.00096988
V       10.63827465       4.47699847      10.60272645       0.00026185      -0.00170721      -0.00266169
V       10.57774609       7.58654440       1.49974636      -0.00585486       0.01754939      -0.00570759
V        9.05412500       6.12626100       2.97886298      -0.00071979       0.00015749       0.01648905
V       10.58905804       7.42170305       4.58010039       0.00008443      -0.00480082       0.01267495
V        9.10246769       6.03098410       9.23286688      -0.00852502       0.00913066       0.00287748
V       10.66484110       7.56358485      10.66069734       0.00084875       0.00046637      -0.00268181
V        9.08542915       9.13447824      -0.00042787      -0.00963795       0.00542966       0.01458680
V       10.54677474      10.72357073       1.42876063      -0.01417398       0.01177624      -0.00150749
V        9.05730720       9.16166629       2.98134992      -0.02470225      -0.00470017       0.00972025
V       10.56295050      10.77964462       4.45776621      -0.01347434       0.01208252      -0.00125518
V       10.63508526      10.80853402       7.71958139       0.00742055      -0.00604136       0.00747806
V       10.58461643      10.71873705      10.63991420      -0.00652108       0.00489824       0.00095157
W        1.49400249       4.51000888      10.62197073      -0.00580114       0.01440151      -0.00037366
W       -0.00856315       9.15834960       9.17587261       0.02872823      -0.03926476      -0.02956387
W        3.06576974       3.05224716       2.95433138      -0.01109518      -0.14819563      -0.10729808
W        3.00725905       6.02342837       2.92313697      -0.11185330      -0.17731904      -0.02810436
W        4.54151746       7.52473111       7.63813413      -0.01355085       0.00638383       0.06534310
W        6.04698734       6.09385208      -0.00833167      -0.01616748      -0.01557884      -0.01085757
Zr       0.03346804       9.14379190       3.05283792      -0.01671577       0.01141751       0.00684142
Zr       2.95403944      -0.01729897       3.14069111      -0.00377224      -0.06080862       0.00210594
Zr       9.09322447       9.21196442       6.06553591      -0.01627727      -0.00819332      -0.02469873
