127
Lattice="12.13407612154073 -0.002448297464165054 0.003365587388845699 -0.0024481550187637523 12.149112329652313 -0.004020308910634898 0.003365621958249256 -0.0040202511867883746 12.142100690539106" Properties=species:S:1:pos:R:3:forces:R:3 energy=-1147.0048802479432 free_energy=-1147.0048802479432 stress="0.0036431625453964144 0.00032219879331538847 -0.0006763232990949074 0.00032219879331538847 0.0032879090684833027 0.000176742617845738 -0.0006763232990949074 0.000176742617845738 0.0025962098247259246" pbc="T T T"
Cr      -0.00397540       2.99674399       9.09711664       0.01778160       0.02485259      -0.01790810
Cr       1.52326218      10.64583884      10.62748975      -0.01194175      -0.01026128      -0.00716497
Cr       7.61196074       1.52493996      10.58114605      -0.00045887      -0.00623497       0.00936763
Cr      10.64636227       1.54370634       4.55126948       0.01108216      -0.00186319       0.00824774
Cr       9.10962559       0.03016216       9.13894776       0.00223684      -0.00702755       0.00495777
Cr       9.08056127       6.06845990       6.02324101      -0.06062409       0.01787181      -0.02087517
Ti       0.05442398       0.02786551       6.03898016       0.01887663       0.00163741       0.00298144
Ti       4.53952391      10.65458057      10.59222833      -0.00231867       0.00908852       0.03579979
Ti       7.59447794       1.50048439       7.58668101       0.01279443      -0.01009356      -0.00454113
Ti       7.64453290       4.52003753       7.54950179      -0.02758887       0.02690727      -0.05653877
Ti       6.12596750       9.12345427       0.00377732      -0.00875000      -0.03694302       0.04089238
Ti      10.62603622       1.51000232       1.42081275       0.00713463      -0.00719199      -0.01004493
Ti       9.07090860       3.00957229       3.03563435      -0.00058156      -0.01459146      -0.00467115
Ti      10.59949727       4.60360515       4.57796413      -0.00233916       0.01361762       0.03012366
Ti       9.08848403       6.03418289       0.02470341       0.00445527       0.00906527      -0.00765466
Ti      10.62983505       7.42701771       7.58781707      -0.00818183      -0.00666555       0.00962358
Ti       9.04712490       9.11674815       9.16421843      -0.00111062       0.01522156       0.02065512
V        0.03742734      -0.03263316      -0.09168373       0.00427076      -0.00471657      -0.01367716
V        1.43447815       1.56771782       1.44469368       0.01454214      -0.00837022      -0.02873751
V       -0.08124965       0.06471781       3.08530244      -0.02388433       0.00038143       0.00969639
V        1.63383306       1.79809450       4.81179485       0.08196583       0.01229171       0.06253962
V        1.60423929       1.56833140       7.60646928      -0.00924058       0.05162947       0.01671506
V        0.02228777       0.01782395       9.11107732      -0.00532447      -0.00522963      -0.00006290
V        1.46756286       1.50057362      10.56566746      -0.00695648      -0.00110338      -0.02543874
V        0.01083153       3.05919177      -0.01943630       0.01209314      -0.00493856      -0.00586913
V        1.49008227       4.55395303       1.50568234       0.03686576       0.02348422       0.04266110
V        0.02271886       3.03096951       3.07162075       0.00719323      -0.01266113       0.00338210
V        1.53730185       4.48904413       4.62563577      -0.13343434      -0.10276573      -0.01838322
V       -0.09185600       2.96459313       6.10344295       0.01773140       0.02923327       0.04189408
V        1.46180831       4.36030463       7.64091745       0.14945325       0.28244408      -0.14990128
V       -0.02947610       6.08737646       0.02384924       0.02523750       0.00954488       0.00460301
V        1.54442350       7.56313870       1.45462032       0.02214506      -0.04950352       0.04985147
V        0.00033377       6.05898255       3.01269918      -0.05719224      -0.00051807      -0.00646023
V        1.53747664       7.44426132       4.66715402      -0.02507074      -0.01143575       0.08378773
V        0.07239534       5.96884630       6.11646062       0.09900802       0.00913521       0.08197409
V        1.45229017       7.55880030       7.68917328       0.12168018      -0.30716703      -0.14432203
V       -0.00207658       6.00867602       9.17107056      -0.00925134       0.01840215       0.01722508
V        1.51473269       7.58988983      10.67336427       0.00243428       0.00242095      -0.00478048
V       -0.00753824       9.13605767      -0.01586553      -0.00897355       0.01124289       0.00723243
V        1.54174352      10.60299365       1.35959108       0.00792058      -0.02782104      -0.01630950
V        1.64156410      10.42021914       4.77120930      -0.04487635       0.00064255       0.03920839
V        0.06267939       9.11717111       6.11797273      -0.01196130      -0.05099669       0.05505718
V        1.55555151      10.60267947       7.64987214      -0.01492377      -0.04654935       0.01618743
V        2.96902231       0.00356392      -0.02773270      -0.00049507      -0.00925563      -0.00330264
V        4.59235366       1.50056772       1.41717064       0.09200369       0.00704299       0.03804772
V        4.58421135       1.62886950       4.71378240       0.08910436      -0.04092705      -0.08801874
V        3.07180911      -0.12905980       6.17650374       0.01040205      -0.04542709       0.00624021
V        4.49599635       1.52427534       7.55000016      -0.02861484      -0.00948897      -0.03148418
V        2.98252409      -0.00639409       9.07997001      -0.00479268      -0.00480089      -0.01184896
V        4.52676183       1.46609586      10.58239141       0.00283595      -0.01287273       0.00519132
V        3.03023923       2.99382405      -0.03885707       0.01960214       0.00108551      -0.00024487
V        4.57040230       4.52548361       1.46490100       0.01030263      -0.04362704       0.13509842
V        4.72671842       4.41792449       4.44637292      -0.79971976       0.23191335       0.80911639
V        4.43688584       7.14658384       4.72995453       0.76584224       2.06347533      -0.91367347
V        4.49833803       4.39844039       7.52489749      -0.01885464      -0.11348834       0.05147944
V        3.05960338       2.97284143       9.16195557      -0.03845899       0.02041574      -0.01706115
V        4.53392579       4.51080979      10.59627955      -0.02241790       0.00562623      -0.01905212
V        3.01504573       6.07853318      -0.02940050       0.01738022      -0.00701153       0.03688730
V        4.50350395       7.57711105       1.53099360       0.00601748      -0.12807004       0.25100763
V        2.86622336       5.97511509       6.28681977       0.82928330      -0.16374630      -0.87671318
V        3.01080137       6.01017352       9.14713248      -0.05237676       0.00067807      -0.10665875
V        4.49230804       7.59811743      10.61263832      -0.02915513      -0.00678948       0.02716034
V        2.99528087       9.11084083       0.01394957       0.00857099      -0.03068480       0.02168960
V        4.54852668      10.59058169       1.48935422       0.00886178      -0.02825389       0.01421367
V        3.11487511       8.99481343       3.09023665      -0.19854807       0.04956050      -0.05889604
V        4.60456570      10.50710153       4.63333647      -0.01252932      -0.23361421       0.03018216
V        3.03414830       8.98331358       6.14971083      -0.09761353       0.01378919       0.11302789
V        4.55539364      10.59685745       7.62297144      -0.01377369      -0.00359390       0.05604420
V        2.98960058       9.09683893       9.14833742      -0.04294976      -0.05144825       0.02550746
V        6.10745354       0.04057230      -0.02536389       0.00801211       0.00254652       0.03039168
V        7.56659793       1.47830509       1.44716629      -0.04122180       0.04265692       0.04618999
V        6.07154758      -0.03718487       3.00667576       0.00532106       0.02961983      -0.00355798
V        7.53643466       1.45125073       4.56342443      -0.03225209       0.00380910      -0.09122242
V        6.00190424      -0.04713796       6.04083818      -0.01254887      -0.03288806      -0.01422343
V        6.06933156       0.05834346       9.11208169       0.00853494       0.01781550       0.01743012
V        6.06833557       2.99464517      -0.06715813      -0.00200632      -0.00431830       0.01198319
V        7.49531258       4.55463245       1.54123685       0.09986064      -0.06102077      -0.10196428
V        6.14268896       2.95226252       2.95749893      -0.09674377       0.37507011       0.18909238
V        7.63530196       4.60177450       4.57952147      -0.12842766      -0.09350532      -0.02889917
V        6.12573050       3.01691660       5.98025342       0.00837434      -0.06819980      -0.07597708
V        5.98805652       3.00307712       9.13128382      -0.02937438      -0.00500341      -0.02183360
V        7.55346258       4.49856435      10.57852609      -0.00230252      -0.00870250      -0.03118676
V        7.57524569       7.63401197       1.60226937      -0.03435290      -0.04104110       0.04615963
V        6.07913034       6.09828655       3.05062435       0.18158000      -0.73259965      -0.11746014
V        7.54991911       7.52656674       4.52680703      -0.22111405      -0.12148499       0.00927719
V        6.07918012       5.98863880       6.07870436      -0.31510481      -0.13290181      -0.12121251
V        7.55428580       7.43837635       7.57894953      -0.03245228      -0.04925713      -0.03038680
V        6.02419139       6.01324667       9.11231140      -0.00861960      -0.00892148       0.02980175
V        7.52723778       7.53357923      10.57816801      -0.00693832       0.01140438      -0.01246935
V        7.61003273      10.68068717       1.50646723      -0.00288110       0.01634442       0.01029301
V        6.03393841       9.09553215       3.04364971      -0.03417243      -0.15401573       0.03208571
V        7.47668007      10.68535028       4.45189745      -0.02625119      -0.01997699      -0.01594113
V        6.00890610       9.03838226       6.05635880       0.08503297       0.02938747       0.20656759
V        7.49811512      10.80249236       7.65366721       0.00365504       0.00537536       0.01839778
V        6.11078111       9.09028609       9.06254905      -0.00627548      -0.00778323       0.05819131
V        7.59120406      10.74707278      10.58681150       0.01311271       0.00233708       0.02844038
V        9.03133013       0.03335344      -0.06798890      -0.00481243       0.01216135       0.00459397
V        9.08037910       0.01710452       3.03639813      -0.02058168       0.00395531      -0.01130562
V        9.14671942       0.05127857       6.01179154       0.01079574      -0.01509483       0.00934796
V       10.60471740       1.51743505       7.68429812       0.02642770       0.00457948       0.01276680
V       10.62353695       1.52467951      10.58098422      -0.00462313       0.00255750       0.00028675
V        9.03937186       3.06489025      -0.05335937      -0.00282844       0.00116427      -0.00040040
V       10.69202372       4.54849127       1.54218364       0.02752536      -0.00843109       0.00027555
V        9.20469551       2.88598386       5.97701496       0.01971914      -0.03151490      -0.02789246
V       10.64092064       4.48453656       7.62561177       0.02712904      -0.00073460       0.00787017
V        9.12816171       3.00132660       9.19631313      -0.00016937      -0.00939935       0.00763015
V       10.64207344       4.47830466      10.59783240       0.00802065      -0.00451934      -0.01126809
V       10.57758393       7.59801129       1.49717637       0.00649159       0.02574467      -0.01889810
V        9.05953123       6.12162447       2.98302048       0.01990002      -0.00598259       0.01052555
V       10.57711855       7.41144141       4.59244501      -0.04116038      -0.03872564       0.02800475
V        9.09638192       6.04085313       9.22973293      -0.01654269       0.01053567      -0.00435317
V       10.66862401       7.57210501      10.66171664       0.00135576       0.01265690       0.00470497
V        9.08441165       9.13958140       0.00652857       0.00332498       0.02244432       0.00788139
V       10.54340336      10.72525195       1.42659899      -0.01035872       0.02296838      -0.00519427
V        9.04417702       9.15520857       2.98205175      -0.04257827      -0.00523251      -0.01455064
V       10.55144360      10.78311051       4.45814889      -0.03681880       0.02285319      -0.00473558
V       10.63801182      10.80828565       7.72234781       0.00801896      -0.00284624       0.01473207
V       10.58161061      10.72086470      10.63957892      -0.00830400      -0.00370789       0.00642537
W        1.49515567       4.51592400      10.62202729       0.00799762       0.01278690      -0.01023265
W       -0.00069421       9.14793151       9.16801823       0.01797969      -0.04211513      -0.02215336
W        3.07151644       3.02817956       2.96004365       0.02391223      -0.07833324       0.01223014
W        3.00874671       5.99866172       3.00887080       0.00647095      -0.07968017       0.26381404
W        4.52939324       7.51724185       7.64187595      -0.03555314      -0.02801751       0.01107479
W        6.03966469       6.08397729      -0.00905367      -0.02791375      -0.02331900      -0.00862530
Zr       0.02032238       9.14560489       3.06575734      -0.04412496       0.00395639       0.02960600
Zr       2.95738370      -0.03188773       3.14401807       0.00425455      -0.05283701       0.02236925
Zr       9.08888705       9.20406379       6.05818496      -0.00522290      -0.01757210      -0.02775992
