127
Lattice="12.13407612154073 -0.002448297464165054 0.003365587388845699 -0.0024481550187637523 12.149112329652313 -0.004020308910634898 0.003365621958249256 -0.0040202511867883746 12.142100690539106" Properties=species:S:1:pos:R:3:forces:R:3 energy=-1143.9510518215366 free_energy=-1143.9510518215366 stress="0.0005796846321317131 -0.0005096956494542791 -0.0006560407357284735 -0.0005096956494542791 -0.000802503676650663 -0.00028333164758376174 -0.0006560407357284735 -0.00028333164758376174 -0.0006296015468572876" pbc="T T T"
Cr      -0.00357832       2.99142926       9.09170296       0.00959194       0.01492180      -0.01225247
Cr       1.51876770      10.64140152      10.62529930      -0.01078529      -0.00991071      -0.00744703
Cr       7.60197208       1.52787273      10.57287190      -0.00621029       0.00096582      -0.00179108
Cr      10.63823318       1.54998599       4.55049492       0.00382499       0.00924825       0.00698628
Cr       9.10822782       0.02324957       9.14237423       0.00171227      -0.00605810       0.00627810
Cr       9.06614951       6.06977245       6.03871376      -0.04138944       0.02117649      -0.00502451
Ti       0.05559434       0.04636154       6.03987157       0.01752098       0.02415223      -0.00076873
Ti       4.53659539      10.66164861      10.58020259      -0.00236599       0.01325031       0.00236711
Ti       7.58959979       1.51435222       7.59179144       0.01214633       0.00871829       0.00258153
Ti       7.62167806       4.54878299       7.54082218      -0.02684675       0.04315430      -0.03193528
Ti       6.13387725       9.14016005      -0.01744646      -0.00875277      -0.00569717       0.01094095
Ti      10.62475366       1.51571772       1.42674884      -0.00485701       0.00161422      -0.00236440
Ti       9.06998412       3.02406808       3.03602496       0.01268430       0.00475954       0.00380970
Ti      10.59728576       4.61164534       4.57298561      -0.01027817       0.01995602       0.01349202
Ti       9.09039683       6.02397869       0.01960315       0.01041128      -0.00641996      -0.00858610
Ti      10.63069803       7.41713509       7.58237622      -0.00955474      -0.00656459       0.00452751
Ti       9.04786028       9.11276090       9.15637076       0.00656167       0.00318615       0.00203724
V        0.03289904      -0.03841826      -0.08617206      -0.00658518      -0.00254532      -0.00557537
V        1.42662659       1.58346396       1.43974944      -0.00092846       0.00968029      -0.03122525
V       -0.07456909       0.06195836       3.08457374      -0.01449467      -0.00260010       0.00462869
V        1.65076130       1.86909135       4.82374338       0.08045648       0.09846838       0.06693943
V        1.57620806       1.57313062       7.62140381      -0.02924228       0.03798692       0.02098417
V        0.01831934       0.00994295       9.11603585      -0.00403565      -0.01010356       0.00303168
V        1.46505819       1.50442130      10.56552993      -0.00359501       0.01321201      -0.02218972
V        0.00801679       3.05287244      -0.01927638       0.00100512      -0.00212590      -0.01131966
V        1.50367198       4.57390986       1.52285088       0.02075509       0.02684032       0.02466758
V        0.00659697       3.01570533       3.05463175      -0.01825397      -0.01622944      -0.01539690
V        1.37712417       4.60249439       4.57727853      -0.15778543       0.07616030      -0.06908728
V       -0.08923276       2.98816474       6.10556749       0.02031810       0.05163517       0.01948704
V        1.50710824       4.38261511       7.59706274       0.08710185       0.19651000      -0.09112544
V       -0.02588730       6.07091879       0.02127847       0.01134196      -0.00269939       0.00243494
V        1.57975540       7.54911976       1.47494162       0.03076504      -0.02461959       0.04830863
V        0.02974076       6.08230891       2.99563282      -0.00670248       0.02770882      -0.01482036
V        1.50177337       7.52284100       4.62746704      -0.07347079       0.08640421       0.00648670
V        0.04876505       5.99484410       6.13445089       0.03217502       0.04194833       0.04971675
V        1.45790735       7.60352159       7.68980809       0.07486190      -0.13710317      -0.08497509
V       -0.00412574       5.99183961       9.16731398      -0.01915861       0.00907681       0.02082777
V        1.52052777       7.57716584      10.67348063       0.00360622      -0.00323451       0.00107128
V        0.00000706       9.12392476      -0.01942568       0.00429832      -0.01152138      -0.00563888
V        1.53873644      10.61001166       1.35659331      -0.00330148      -0.01073107      -0.01534729
V        1.65862127      10.45030680       4.76817918      -0.00601701       0.02433707       0.01184178
V        0.07220817       9.14028080       6.10670627       0.00106210       0.00544177       0.02753560
V        1.56370963      10.62193641       7.64658706      -0.00220347      -0.00105842       0.00724415
V        2.97144934       0.01577886      -0.02925705      -0.00002909       0.00395826      -0.00783377
V        4.53866466       1.49563640       1.38365266       0.00893806      -0.02012134      -0.01551805
V        4.58483221       1.67078731       4.68547373       0.05721977       0.00276506      -0.09190079
V        3.07153169      -0.07439523       6.16975379       0.00911096       0.03757017      -0.00419642
V        4.48843104       1.59536291       7.53329273      -0.01753238       0.08345850      -0.04729776
V        2.98391206       0.01473369       9.07292760       0.00388598       0.02619846      -0.01777806
V        4.51948064       1.47866051      10.57645969      -0.01118346       0.01128954      -0.01169753
V        3.01028973       3.00158245      -0.02701828      -0.00583305       0.00344319      -0.00994091
V        4.53776456       4.58094091       1.42517555      -0.02864491       0.01891690       0.01729205
V        5.30167238       4.36270273       3.89420193       0.08900485       0.02115226      -0.07735982
V        3.69857216       4.44459382       5.44721148      -0.32922305      -1.40248380       0.23063981
V        4.57875862       4.54872589       7.72307228       0.09124766       0.11890022       0.15249089
V        3.04938470       2.99999315       9.15703968      -0.01999862       0.06128924      -0.03507952
V        4.52993303       4.52633137      10.61813933      -0.01783378       0.01982030       0.01717534
V        2.99619745       6.07725748       0.00547950      -0.00617690       0.00393988       0.04985300
V        4.48077448       7.65022783       1.43634544      -0.03166521      -0.02281594       0.04196039
V        2.79204215       6.25160559       6.36147015       0.36182699       0.06263466      -0.34671950
V        2.99983294       6.03648114       9.16598067      -0.03141632       0.04151303      -0.03240360
V        4.49029792       7.59378676      10.62112669      -0.01934241      -0.00151385       0.03187292
V        2.98852850       9.12471112       0.01183796       0.00621782      -0.00873742       0.01543773
V        4.54626818      10.61490459       1.48145016       0.00353022       0.00070778       0.00454869
V        3.19591955       9.00793865       3.10571499      -0.02326192       0.02305708       0.00733815
V        4.62002543      10.64517268       4.61234814       0.00786032       0.03182184      -0.00458426
V        3.11438414       9.04246103       6.06725410       0.02490786       0.06192051      -0.01452142
V        4.56129118      10.63926565       7.59799159       0.00230270       0.04933404       0.00366889
V        3.00296295       9.12330771       9.12993442      -0.02027413       0.00832096      -0.00068307
V        6.09647908       0.03249922      -0.04465366      -0.00861159      -0.00728222      -0.00271505
V        7.61073061       1.43877864       1.39500503      -0.00671331       0.00160135      -0.00404226
V        6.07177697      -0.04838776       3.00746124      -0.00084865      -0.01051216      -0.00647992
V        7.56108619       1.46205964       4.61057810       0.02139112      -0.00613882      -0.00753969
V        6.00882962       0.00424872       6.04976028       0.00438027       0.03108536       0.00000319
V        6.06582181       0.05945053       9.10575448      -0.00121222       0.01828638      -0.00091071
V        6.06644604       2.99914880      -0.08523170      -0.00425999      -0.00279333      -0.01906320
V        7.42435946       4.59091533       1.60726377       0.01224474      -0.00754201      -0.01922734
V        6.22336871       2.69060273       2.79134964       0.03654111      -0.01873976      -0.05478782
V        7.69579685       4.68229270       4.62218738      -0.00847648       0.02544051       0.02422756
V        6.08155323       3.09472786       6.01886428       0.01570099      -0.01279275       0.00292349
V        6.02669876       2.98825725       9.16770788       0.02315081      -0.00739878       0.01750921
V        7.55550471       4.49820234      10.58979223       0.00277587      -0.00313979       0.00212884
V        7.60320408       7.65711458       1.56606286       0.00465226      -0.00279562      -0.00565456
V        5.96743761       6.55975218       3.13633953       0.04659914      -0.00053331      -0.04904404
V        7.65733985       7.60509264       4.54348258      -0.02133678      -0.01327108       0.04093561
V        5.96021195       6.11970343       5.98514117      -0.27688967      -0.01293107      -0.09030878
V        7.53841058       7.43689180       7.54579870      -0.03856460      -0.00371749      -0.03846359
V        6.04664643       6.04822969       9.11001810       0.01498429       0.03366861       0.02294997
V        7.52516475       7.52193586      10.56916804      -0.00685513      -0.00487812      -0.00622341
V        7.61333601      10.67091505       1.50526978      -0.00538715      -0.00088791       0.00741826
V        6.04218049       9.17266194       3.04912431      -0.02069813      -0.01639731       0.03382450
V        7.50355953      10.70865570       4.46553164       0.00363692       0.00495527      -0.00414872
V        6.00298190       9.07758447       5.97563146       0.01831808       0.04990038       0.03966347
V        7.50445427      10.81254144       7.64888526       0.00756359       0.01210714       0.00812594
V        6.11192948       9.11459634       9.04202341       0.00182250       0.02728444       0.00794970
V        7.59185830      10.74426135      10.57675976       0.00381420      -0.00328712       0.00864222
V        9.03737420       0.02271456      -0.07079876      -0.00057061      -0.00662775       0.00032405
V        9.09644205       0.01772233       3.04846432       0.00463823       0.00264169       0.00555764
V        9.14831349       0.06600087       6.01356677       0.01537347       0.00516971       0.00623657
V       10.60268700       1.51989963       7.68611547       0.01733417       0.01483365       0.00489156
V       10.62064211       1.51066400      10.58527103      -0.00623217      -0.01283270       0.00128638
V        9.04318071       3.06461223      -0.05667726       0.00124311      -0.00331773      -0.00167921
V       10.68018786       4.54217218       1.53645882      -0.00258587      -0.00904005      -0.00653831
V        9.18870441       2.90277232       5.99412989       0.00362565       0.00720037       0.00201373
V       10.63413478       4.47553089       7.63084338       0.00411951       0.00316030       0.00856919
V        9.12517088       3.00047546       9.19346851      -0.00141536       0.00376859      -0.00336928
V       10.64451081       4.45714056      10.59674330       0.00637384      -0.01955295      -0.00825784
V       10.58781455       7.57532274       1.50635146       0.00664765      -0.00683956       0.00729817
V        9.05076547       6.12877144       2.96774544      -0.00709257       0.00132160      -0.00661751
V       10.57973978       7.42808560       4.57683993      -0.01591400       0.00793202       0.00219417
V        9.09794290       6.02562701       9.22451225      -0.00804867      -0.00468457      -0.00740929
V       10.67109660       7.57034546      10.65662749       0.00590347       0.00689001      -0.00534811
V        9.08678054       9.12720058      -0.00298749      -0.00611422      -0.00196213       0.00552541
V       10.54986731      10.71684247       1.43256811      -0.00461554       0.00000471       0.00218921
V        9.06799460       9.16554925       2.97981349      -0.00410188       0.00214338      -0.00100473
V       10.57003636      10.78439156       4.45927359       0.00042264       0.01150685       0.00340006
V       10.64783529      10.80669440       7.72278314       0.01726455      -0.00449220       0.00509915
V       10.58799225      10.70843260      10.63970554       0.00331349      -0.00817079      -0.00342861
W        1.49182266       4.51097770      10.62055172      -0.00609920       0.00558873      -0.00260722
W        0.00398513       9.14394073       9.16544135       0.03118001      -0.03788860      -0.02832585
W        3.06497795       3.11893668       2.98829416      -0.00657277      -0.00458593      -0.02169424
W        3.11991138       6.12048684       3.14296206       0.07262619       0.01046793       0.25462190
W        4.55886986       7.59821055       7.66412789       0.01976660       0.09847505       0.07564699
W        6.05246470       6.09794930       0.00729106      -0.00534011      -0.00395160       0.01405511
Zr       0.03993982       9.15553611       3.05244690      -0.00531903       0.01715548       0.00606784
Zr       2.93824688       0.01327978       3.13351966      -0.02644301       0.00322497      -0.00165383
Zr       9.10084965       9.21874047       6.07832372      -0.00011375       0.00553974      -0.00085517
