127
Lattice="12.13407612154073 -0.002448297464165054 0.003365587388845699 -0.0024481550187637523 12.149112329652313 -0.004020308910634898 0.003365621958249256 -0.0040202511867883746 12.142100690539106" Properties=species:S:1:pos:R:3:forces:R:3 energy=-1146.5506763421022 free_energy=-1146.5506763421022 stress="0.003801550133501444 7.128204049936967e-05 -0.0008886476744149624 7.128204049936967e-05 0.0022211691572268256 -0.0003535222771922769 -0.0008886476744149624 -0.0003535222771922769 0.0030183634232951546" pbc="T T T"
Cr       0.00678117       3.00253110       9.08610551       0.01943589       0.02292772      -0.01360597
Cr       1.51312708      10.64386805      10.62222081      -0.00679267       0.00115251      -0.00171041
Cr       7.60728752       1.52384888      10.57697683       0.00492566      -0.00589259       0.00758077
Cr      10.64548443       1.55923443       4.55217742       0.02310507       0.01935467      -0.00167150
Cr       9.10918137       0.01721535       9.14534759       0.00170237      -0.01161636       0.00791188
Cr       9.05889829       6.08008494       6.02676147      -0.00616452       0.01430468      -0.02138604
Ti       0.05292140       0.06064049       6.04692905      -0.00219334       0.02937967       0.02100507
Ti       4.53362884      10.66949775      10.57926055      -0.00382522       0.01871152       0.00018928
Ti       7.60792142       1.51462698       7.58553464       0.03638585      -0.00138476      -0.00907378
Ti       7.64180867       4.55198886       7.52450617       0.04239506      -0.00087229      -0.02578290
Ti       6.13038457       9.13399857      -0.00908104      -0.00972390      -0.01163700       0.01266308
Ti      10.61778962       1.50480337       1.41621373      -0.00942045      -0.01122465      -0.01920950
Ti       9.07851998       3.02441389       3.03675946       0.00903760       0.00264181       0.00044764
Ti      10.59988468       4.61903291       4.59721447       0.00750840       0.01066601       0.04285510
Ti       9.09764423       6.01437577       0.01277187       0.00221178      -0.01547942      -0.00733089
Ti      10.62772031       7.41663559       7.58292179      -0.00171958       0.00356285       0.00305798
Ti       9.04072539       9.11041623       9.15956648      -0.00998187      -0.00000017       0.00532017
V        0.02862854      -0.04447857      -0.08937771      -0.00884705      -0.01053970      -0.01000601
V        1.42479163       1.58437439       1.42173830      -0.00211235      -0.00294626      -0.03630273
V       -0.07839043       0.07456739       3.08706855      -0.00173110       0.02415721       0.00731676
V        1.60234766       1.81173272       4.71523071      -0.07606893      -0.10546081      -0.18386350
V        1.55944529       1.61260087       7.63551505      -0.02565856       0.07272656       0.02338362
V        0.01701975       0.01368802       9.11745852      -0.00370876       0.00636201       0.00603228
V        1.46304852       1.51412144      10.55697755      -0.00099490       0.01372891      -0.02451406
V        0.00948336       3.05048840      -0.02346943       0.00281375      -0.01140492      -0.01556553
V        1.50778612       4.57415989       1.50345073       0.00170603      -0.00826540      -0.04593557
V        0.00604161       3.02626085       3.04691125       0.00585319       0.01528253      -0.00998573
V        1.45092530       4.64548930       4.54126188       0.13601173       0.08360506      -0.07130979
V       -0.00123235       3.02649607       6.09811587       0.16817416       0.07793401      -0.01375103
V        1.51246104       4.53505986       7.61083422       0.01573996       0.28267499       0.01749321
V       -0.02462099       6.07328241       0.02456396      -0.00498468      -0.00617262       0.00112611
V        1.58899162       7.54991982       1.48645323       0.01089048      -0.00886916       0.01377738
V        0.03552671       6.08044833       3.00345006       0.00666654      -0.00538757       0.01262245
V        1.51251963       7.54108320       4.65483623       0.01308838       0.03527457       0.05215415
V        0.10414780       6.03158808       6.13165815       0.10150217       0.07248229      -0.00842248
V        1.48577427       7.58567395       7.65828241       0.05854183      -0.02928171      -0.06874701
V        0.00624658       6.00592360       9.16013665       0.02579796       0.02859370      -0.02073045
V        1.51787171       7.58572390      10.67378015      -0.00453751       0.00944286      -0.00617657
V       -0.00592139       9.12109852      -0.01522230      -0.01031479      -0.00859749       0.01398456
V        1.54229622      10.60344029       1.34443988       0.01011397      -0.01787941      -0.02113992
V        1.66874803      10.48239350       4.78520605       0.00998878       0.05567037       0.02839237
V        0.07781685       9.13857920       6.12653949       0.00383136       0.00407004       0.02925063
V        1.56138422      10.63043310       7.64945815      -0.00184996       0.01270320       0.00951072
V        2.97028101       0.01817982      -0.04227735      -0.00592577       0.00148191      -0.02392133
V        4.58312866       1.51881440       1.39713273       0.07664368       0.03809807       0.02741744
V        4.64933278       1.64705246       4.59296302       0.11537925      -0.04481918      -0.17027288
V        3.08010739      -0.00311636       6.16103048       0.01640660       0.11830242      -0.01138610
V        4.54698528       1.59254565       7.54191832       0.10753722      -0.00504797       0.01372496
V        2.98219706       0.03491267       9.06739999       0.00025644       0.03621712      -0.00818482
V        4.51495559       1.48944055      10.57695294      -0.00535611       0.02119104      -0.00464341
V        3.01939217       3.00325261      -0.04145878       0.01501852      -0.00339705      -0.03434381
V        4.54775955       4.57243878       1.44743941       0.01143429      -0.01889950       0.03485431
V        4.92165025       4.54218411       4.26636889      -0.70823042       0.34509558       0.67562318
V        3.31225292       3.65035381       5.87235841      -0.70785947      -1.44576207       0.78340867
V        4.61867949       4.59895873       7.64230259       0.08159815       0.09414146      -0.14673156
V        3.06391000       3.04478375       9.08341163       0.03193427       0.08409342      -0.14119695
V        4.52000440       4.52653410      10.60968261      -0.02061235       0.00007200      -0.02254774
V        2.99912238       6.08002289       0.00728529       0.00002890      -0.00327366      -0.00726745
V        4.49731762       7.63552657       1.45424838       0.02693918      -0.03040659       0.03336412
V        3.02205207       6.20660318       6.12973051       0.43318719      -0.07157543      -0.44190438
V        2.99901875       6.06943398       9.12480687      -0.00523052       0.05700006      -0.07862367
V        4.47656517       7.59542369      10.62343990      -0.02174462      -0.00336630       0.00403027
V        2.99038831       9.12702038       0.01310859       0.00455903      -0.00441690       0.00201652
V        4.54899633      10.60980310       1.48586159       0.00547067      -0.01167644       0.00945471
V        3.20067541       9.01569684       3.12270774       0.00906264       0.00866749       0.03732307
V        4.62269236      10.66404054       4.61736170       0.00490849       0.02954886       0.01027980
V        3.09660196       9.06176647       6.08562934      -0.03207995       0.03522600       0.03490242
V        4.55591916      10.66443343       7.59553939      -0.00955831       0.03915063      -0.00283163
V        2.98539713       9.13185492       9.12948106      -0.02514250       0.01163318       0.00060964
V        6.10009683       0.03690096      -0.03302356       0.00619207       0.01111038       0.02413117
V        7.57906535       1.46878116       1.43022413      -0.07056055       0.06233437       0.07119114
V        6.08184176      -0.02250089       2.99343666       0.01513147       0.04722381      -0.01911488
V        7.56775662       1.47210181       4.57123343       0.00898600       0.01509750      -0.06872670
V        6.03036845       0.00808517       6.04134571       0.03207849       0.00305977      -0.00902928
V        6.06637749       0.07413771       9.10872871       0.00348476       0.02257292       0.00188394
V        6.06532826       2.99704142      -0.07495706      -0.01131637      -0.00636701       0.01962311
V        7.47554916       4.56445648       1.55455578       0.08374800      -0.04934254      -0.09951432
V        6.17605456       2.91268932       2.90707077      -0.09517096       0.40915784       0.21747246
V        7.66332490       4.66282182       4.60139395      -0.06160924      -0.03634755      -0.03313371
V        6.09571820       3.07366024       5.98355073       0.02724765      -0.04214591      -0.06842536
V        6.02905276       2.99025297       9.15890079       0.00541633       0.00474922      -0.01764251
V        7.55433476       4.49080196      10.58011350      -0.00517290      -0.01515723      -0.00855763
V        7.58663858       7.63399716       1.58465967      -0.03564751      -0.03647097       0.03761118
V        6.03733846       6.35286615       3.07613039       0.11250335      -0.36801374      -0.09893103
V        7.64301331       7.59399027       4.53025871      -0.02111513      -0.01558060      -0.02625712
V        5.98574078       6.16641302       5.97789970       0.05805712       0.08380778      -0.01033138
V        7.53180782       7.43728672       7.52791829      -0.00763083      -0.00709573      -0.02982733
V        6.03563592       6.04579363       9.09580596      -0.01613197      -0.00404830      -0.02482016
V        7.51990794       7.51919649      10.57079486      -0.00581270       0.00042591       0.00907281
V        7.60760779      10.67296837       1.51149355      -0.00668080       0.00919534       0.00899973
V        6.02743488       9.14106045       3.06490381      -0.02014096      -0.04847567       0.02682597
V        7.49470743      10.70554121       4.45808569      -0.01305164      -0.00608828      -0.01016249
V        5.99500999       9.09669446       5.98283403      -0.01180044       0.03400875       0.01766593
V        7.51193560      10.82342828       7.65215712       0.00798804       0.01890925       0.00828748
V        6.10631961       9.12032736       9.04193081      -0.00411980       0.00731598       0.00237929
V        7.59033335      10.74071127      10.58322807      -0.00373244      -0.00912486       0.01645331
V        9.03168692       0.01715168      -0.06879268      -0.00987262      -0.00480209       0.00400760
V        9.08804930       0.01694620       3.03984153      -0.01186275       0.00655061      -0.01503355
V        9.16288680       0.06928747       6.01064494       0.02641215       0.00848616      -0.00360997
V       10.61551618       1.53502347       7.68623075       0.03091457       0.03208850       0.00647426
V       10.61844478       1.50275110      10.58358797      -0.00636777      -0.01131135      -0.00070014
V        9.04084022       3.05584691      -0.06072954      -0.00433026      -0.00311349       0.00544652
V       10.69237951       4.53942704       1.53309483       0.02016757      -0.00827731      -0.00619548
V        9.20447149       2.89806790       5.98022147       0.04027836      -0.01596629      -0.02436367
V       10.65313544       4.47262516       7.62094549       0.04437135      -0.00028662      -0.01229025
V        9.13148987       3.00119080       9.19187855       0.00920154      -0.01121864       0.01160180
V       10.65084913       4.44601382      10.58618604       0.00909609      -0.01985710      -0.01713630
V       10.58756340       7.57604501       1.51049053      -0.00630927      -0.00044959      -0.00378431
V        9.05717238       6.11472538       2.96931013       0.00857403      -0.02686788       0.00707764
V       10.58549008       7.42641063       4.58955626       0.00795354      -0.00221878       0.01884991
V        9.09678721       6.02490544       9.22785390      -0.00112872      -0.00564755       0.01045100
V       10.66987773       7.57097526      10.65824471      -0.00367095      -0.00101984       0.00605784
V        9.08105978       9.12251673       0.00302536      -0.00815191      -0.00072377       0.01192630
V       10.54461252      10.71180901       1.43242654      -0.01165253       0.00063284       0.00555219
V        9.05991489       9.15923463       2.98242462      -0.01609935      -0.00565476       0.00591488
V       10.56391051      10.79110962       4.45917622      -0.01138225       0.02226927      -0.00258170
V       10.65222321      10.80943462       7.72862078       0.00602278       0.00709809       0.01463866
V       10.58372772      10.70087099      10.64015606      -0.00675947      -0.00901789       0.00181927
W        1.50353248       4.51889119      10.61595632       0.02315886       0.02038420      -0.02532330
W        0.00492817       9.13775366       9.16067207       0.00391406      -0.00948824      -0.00428235
W        3.07434706       3.10492368       2.96847847       0.01399850      -0.03495512      -0.04302782
W        3.11946383       6.15050871       3.11699218      -0.01665553       0.05177445      -0.06125876
W        4.54287671       7.62016732       7.65427515      -0.02654058       0.04380696      -0.02490358
W        6.04657597       6.08416916      -0.00174644      -0.01415851      -0.02605705      -0.01290020
Zr       0.04452918       9.16262227       3.06463090       0.00750422       0.00918322       0.01286719
Zr       2.94166539       0.00413016       3.10271421       0.00472119      -0.02210760      -0.05347774
Zr       9.10375530       9.22419673       6.07251393       0.00209237       0.01028064      -0.00194682
