125
Lattice="12.66565832686254 -0.002298327060188814 0.00834880377590093 -4.224032352002198 11.93626782835652 -0.005927311628687681 -4.2140114367360075 -5.969726805641839 10.344027844722934" Properties=species:S:1:pos:R:3:energies:R:1:forces:R:3 energy=-1115.4334406148646 free_energy=-1115.4334406148646 stress="-0.00013501580657171428 -0.0001360908168667088 0.0006741466738907077 -0.0001360908168667088 -0.0006830589731178672 -0.00022174811859322196 0.0006741466738907077 -0.00022174811859322196 0.0002611924278295496" pbc="T T T"
V        0.01730178       0.00937397       0.01525842      -9.21803015      -0.00045536      -0.00113787      -0.00141746
V       -0.83150004      -1.18374592       2.07602662      -8.99315061      -0.00028612      -0.00035728      -0.00002583
V       10.99244440      -2.37575117       4.14509377      -8.93030478       0.00035842       0.00059900       0.00007968
V       -6.73379247       8.36633800       6.19752164      -9.11029030       0.00238435      -0.00010803      -0.00021151
V       -3.35746226      -4.76619439       8.27698964      -9.26998846       0.00065310      -0.00044334       0.00043468
V       -1.66813923       1.20111876       2.08018842      -9.21803039      -0.00183877      -0.00009558       0.00027405
V       -2.51943688       0.01171473       4.14125496      -8.94855518      -0.00026473      -0.00001338      -0.00000112
V       -3.35733517      -1.18162170       6.20906628      -9.05988762      -0.00186276       0.00019785      -0.00046456
V       -2.52508828       3.59469028       2.07586462      -9.27000881       0.00032457      -0.00020048       0.00079798
V       -3.36698029       2.40083333       4.13539807      -8.98214404       0.00007879      -0.00043263      -0.00062874
V       -4.20847946       1.20774397       6.20106220      -8.97882630      -0.00055156       0.00077251      -0.00023499
V       -5.05531916       0.01384673       8.27252992      -9.23672510      -0.00029197      -0.00134127       0.00050079
V       -2.52313890       7.17797889       0.00580063      -9.05980267      -0.00086732      -0.00043125      -0.00165721
V       -3.37104651       5.98855125       2.07744924      -9.11030117       0.00055870       0.00112255       0.00198561
V       -4.21157957       4.78722152       4.14249089      -8.92941149      -0.00061656       0.00054513      -0.00057536
V       -5.05419649       3.59809197       6.20330915      -8.92955001       0.00011512      -0.00014895       0.00014382
V       -5.90096414       2.40449817       8.27465568      -8.97884517      -0.00003111       0.00039341      -0.00080476
V       -3.36897510       9.56186699       0.00099487      -8.94856070      -0.00007631      -0.00014113      -0.00019968
V        8.45065064       8.37100056       2.07811538      -8.93030732       0.00048096       0.00050330      -0.00003285
V        7.60992212       7.17384236       4.14389704      -8.93219380       0.00051201      -0.00055357       0.00065555
V       -5.89482190       5.97744167       6.20476769      -8.92940480      -0.00036960       0.00037042      -0.00083787
V       -6.74403859       4.78875916       8.27289160      -8.98236140      -0.00065793       0.00005588       0.00033962
V        2.54549201       0.01011090       0.00823873      -8.99311622       0.00023001      -0.00015643      -0.00034973
V        1.70741294      -1.19355962       2.08044173      -8.92796799       0.00118131      -0.00240263       0.00054494
V       -3.36871029       9.55929942       4.13704989      -8.92734428       0.00033977       0.00020061       0.00009463
V        0.01176732      -3.56958937       6.20932122      -8.94746718      -0.00058243       0.00120697      -0.00029319
V       -0.83237013      -4.76166284       8.27930272      -8.98234260      -0.00033292       0.00055995       0.00028915
V        1.70345120       2.39306898       0.01570738      -9.21803002       0.00086015       0.00086496      -0.00139668
V        0.88303252       1.18560978       2.10795279      -9.06214423       0.00102395      -0.00066531       0.00127300
V        0.01376725       0.00402668       4.15540626      -8.92798665      -0.00029995      -0.00130570       0.00228994
V       -0.83439691      -1.18292403       6.21213488      -8.98168428       0.00274043      -0.00008872       0.00001998
V       -1.67335409      -2.37451497       8.27683606      -9.08197064      -0.00084024      -0.00053231       0.00103981
V        0.85713140       4.79040469       0.00485042      -9.27001286       0.00064246      -0.00009000       0.00060308
V        0.01800028       3.58488338       2.08068599      -9.21802639      -0.00050261       0.00176539       0.00018832
V       -0.83080705       2.39749272       4.14478766      -8.99288455      -0.00028995       0.00020991       0.00022366
V       -1.67246348       1.20847606       6.20585275      -8.93032410       0.00032314      -0.00035071      -0.00049178
V       -2.50906869       0.01763864       8.27577664      -9.11030198       0.00226583       0.00019525       0.00008021
V        0.01187441       7.18451378       0.00602437      -9.11030511       0.00091154       0.00122955       0.00175981
V       -0.83638253       5.98308846       2.07017188      -9.08200948       0.00029761      -0.00125704      -0.00025749
V       -1.67932413       4.78668260       4.13586836      -8.98212658       0.00034669       0.00004432      -0.00066056
V       -2.52163673       3.59313251       6.20601673      -8.92832281      -0.00020224       0.00009260      -0.00025152
V       -3.35817714       2.41321736       8.27292015      -8.93042344      -0.00055757       0.00029480      -0.00057495
V       -5.05134148       3.59768013      10.34559160      -8.93030998      -0.00042731       0.00018454       0.00052125
V       -1.68019695       8.36460195       2.06728798      -8.98168114       0.00093678       0.00121060       0.00224464
V       -2.52553737       7.17397804       4.13683781      -8.94747869       0.00015233       0.00070812      -0.00119122
V       -3.37049140       5.97833245       6.20380527      -8.92952287       0.00012747      -0.00002616       0.00008635
V       -4.21011827       4.78705785       8.27472908      -8.92830275      -0.00021720       0.00010474      -0.00017786
V        0.85565000      -5.95938161      10.35201119      -8.93030541      -0.00034002       0.00035715       0.00049138
V        0.00952035      10.75360284       2.06850783      -8.92734707      -0.00015221       0.00003119       0.00040174
V       -0.83350466       9.55425210       4.13662696      -8.94894758      -0.00090069      -0.00000467      -0.00148003
V       -1.68205067       8.36577115       6.20406490      -8.95473603       0.00092161       0.00031736       0.00052681
V        1.69740643      -4.76147925       8.28158776      -8.97858117      -0.00040121      -0.00002924      -0.00080985
V        4.23095510       2.39816727       0.00788019      -8.94855477       0.00008525       0.00011833      -0.00022482
V        3.40172056       1.20176925       2.08089667      -8.92799145       0.00255447      -0.00028237       0.00051961
V        2.54547905       0.01095435       4.14428823      -8.93482700       0.00084211      -0.00064360       0.00102293
V        1.69760572      -1.18495237       6.21660714      -8.94896676      -0.00151077       0.00042332      -0.00067588
V        0.85865765      -2.37626017       8.28082382      -8.92225854       0.00064509       0.00000536      -0.00014488
V        3.38237343       4.78691349       0.00266355      -8.98210497      -0.00036521      -0.00056961      -0.00037109
V        2.54621599       3.59136668       2.07698407      -8.99284305       0.00016741       0.00036696      -0.00006684
V        1.70807731       2.39933485       4.15584742      -8.92800939       0.00109693       0.00070062       0.00218302
V        0.85606073       1.20555904       6.21243793      -8.92737948       0.00036362      -0.00033561      -0.00024894
V        0.01242453       0.01311693       8.27890519      -8.94748241      -0.00061691      -0.00037222      -0.00113408
V        2.54466392       7.17574126       0.00554016      -8.92941320      -0.00051520       0.00056461      -0.00065444
V        1.69542218       5.97974808       2.06946180      -8.98208970      -0.00068550      -0.00032286      -0.00002818
V        0.85646436       4.78425850       4.14219697      -8.94854866      -0.00010595       0.00026618      -0.00001472
V        0.01050117       3.58767542       6.20633665      -8.93032040       0.00042119      -0.00016928      -0.00052247
V       -0.83023319       2.39795941       8.27641856      -8.93217847       0.00042716      -0.00038915       0.00083819
V       -2.51985535       3.59269152      10.34651640      -8.93219106       0.00062081      -0.00052344       0.00058927
V        0.85282117       8.36832011       2.06820617      -8.94748148      -0.00135279       0.00016948      -0.00026756
V        0.01008499       7.17321682       4.13941831      -8.92218407       0.00010315       0.00040682       0.00042383
V       -0.83412528       5.97801815       6.20204567      -8.97856441      -0.00088715       0.00031250      -0.00029109
V       -1.68723842       4.77540232       8.27341598      -8.93043426      -0.00048240       0.00041727      -0.00058162
V        3.37616430      11.94047547       0.00705840      -9.11029000      -0.00091841      -0.00126722       0.00181851
V        6.76430162      -1.18238250       2.07463372      -8.94746580      -0.00060880       0.00119024      -0.00027798
V        1.69784464       9.56066409       4.13447653      -8.95475839      -0.00002635      -0.00003149       0.00111209
V        4.23414841      -4.76166026       8.28006200      -9.23683054       0.00120109       0.00078504       0.00049030
V        6.76138212       2.39560910       0.01324857      -9.05991479       0.00015894       0.00090899      -0.00168166
V        5.92349490       1.20617999       2.07417195      -8.98168736      -0.00085445      -0.00136428       0.00223127
V        5.08409709       0.01227593       4.14298891      -8.94897173      -0.00023767       0.00086777      -0.00144691
V        4.24855671      -1.19225878       6.23044219      -9.03643056       0.00016788      -0.00020152       0.00017022
V        5.91210401       4.78564424       0.00407765      -8.97879398      -0.00036121       0.00084694      -0.00036519
V        5.07032264       3.59223192       2.07713616      -8.93032546      -0.00034908      -0.00058849      -0.00009071
V        4.23422583       2.39983131       4.14392943      -8.92738424      -0.00019323      -0.00053424       0.00008887
V        3.39117421       1.20934294       6.21704364      -8.94899196      -0.00084765       0.00129815      -0.00064006
V        2.54255979       0.01391166       8.28047940      -8.95489039       0.00094264      -0.00071575      -0.00002076
V        5.06894627       7.17689656       0.00475396      -8.92954685       0.00013701      -0.00013523       0.00011347
V        4.22929907       5.97977060       2.07230826      -8.92832556      -0.00018837       0.00011066      -0.00026295
V        3.38808169       4.78173959       4.13818532      -8.93032179      -0.00049265      -0.00049397       0.00002954
V        2.54526054       3.59493576       6.21310026      -8.98169549       0.00093849      -0.00260180       0.00005772
V        1.69988421       2.39865732       8.27938166      -8.94746638       0.00012424       0.00069619      -0.00111287
V        4.22862816       9.55636118       0.00602740      -8.92940567      -0.00072675       0.00022268      -0.00063029
V        3.38597373       8.36692709       2.06671304      -8.92952429       0.00004237      -0.00006749       0.00014972
V        2.53922486       7.17059233       4.13648522      -8.97859618      -0.00007419       0.00061256      -0.00078384
V        1.70315089       5.97228671       6.21059470      -9.06000135      -0.00084240       0.00168297      -0.00039148
V        0.85518794       4.77358190       8.27682744      -9.11029323       0.00060028      -0.00225646       0.00003137
V       10.13991491       0.00548229       0.01236354      -9.26998524       0.00035916      -0.00053987       0.00061794
V        9.29796174      -1.18031231       2.07634694      -8.98237636       0.00007395       0.00069693       0.00006116
V        8.45647288      -2.37196278       4.14290127      -8.97861817      -0.00049230      -0.00006644      -0.00073996
V        7.60971837      -3.56828855       6.21311851      -9.23681899      -0.00037006       0.00021663       0.00143998
V        8.45088333       1.20466977       2.07763606      -9.08195665       0.00140926       0.00028388      -0.00035982
V        7.61095064       0.01087026       4.14627735      -8.92228225      -0.00032616      -0.00035899       0.00047732
V        8.44874811       4.78789106       0.00380954      -9.23673828       0.00114354      -0.00085086      -0.00038634
V        7.60084394       3.59176817       2.08534185      -9.11030122      -0.00076569      -0.00090135       0.00194064
V        6.76501696       2.40035076       4.14418641      -8.94748096      -0.00053513      -0.00033686      -0.00117415
V        5.92255467       1.20885341       6.21083829      -8.95491085       0.00000804      -0.00105424       0.00056498
V        7.60531029       7.17933547       0.00456121      -8.97881715      -0.00081200       0.00012061      -0.00031100
V        6.75218061       5.98750098       2.08219179      -8.93042447      -0.00041796       0.00035057      -0.00065380
V        5.91957278       4.78419847       4.14340500      -8.93217668       0.00071561      -0.00028165       0.00066173
V        5.07828406       3.59302297       6.21073065      -8.94746800      -0.00127086       0.00020525      -0.00024628
V        4.23549209       2.39765291       8.28174979      -8.92235701       0.00020637      -0.00071017      -0.00005917
V        6.76085960       9.56311631       0.00363609      -8.98239105       0.00046767       0.00044295      -0.00035009
V        5.91851956       8.36780473       2.07280765      -8.92830047      -0.00012159       0.00013419      -0.00022036
V        5.08197488       7.16850349       4.12851585      -8.93043332      -0.00050653       0.00041141      -0.00056476
V        4.23813445       5.96954959       6.20538191      -9.11029562       0.00088913      -0.00213675      -0.00012318
V        3.38988992       4.78326687       8.27832776      -9.08191978       0.00024125       0.00118584       0.00105552
Cr      -0.74625409       2.33667924       0.11219096      -7.75782525      -0.00011327       0.00008590      -0.00013757
Cr      -4.19370471      -2.37493284       8.27671842      -7.81224524       0.00130855       0.00018056      -0.00017262
Cr      -1.67684447       4.79479879       0.01177843      -7.81212931       0.00034002       0.00076315       0.00096710
Cr       2.55024024       7.15871593       8.27874161      -7.81240766       0.00032271      -0.00132060      -0.00025988
Cr       9.29111501       2.39229918       0.01980860      -7.81228387      -0.00067830      -0.00051581       0.00103029
Ti       5.08402991      -3.57540958       6.21879174      -8.20527129      -0.00172616      -0.00208125      -0.00405062
Ti       3.39411189      -2.38049774       8.28909937      -8.20537494      -0.00484427       0.00017975      -0.00014808
Ti       6.77455749      -1.18539946       6.21917175      -8.20541105       0.00141736       0.00239238      -0.00397781
Ti       5.89816743      -2.35800343       8.25100709      -8.49450592       0.00282372      -0.00195905       0.00347616
Ti       5.08463125       0.00958028       8.28952696      -8.20551372      -0.00169351       0.00453196      -0.00015966
