124
Lattice="-7.591332893 7.571263322 7.572119558 7.538506746 -7.580117697 7.52813586 7.578493281 7.567320257 -7.581026814" Properties=species:S:1:pos:R:3:forces:R:3 stress="0.004992533217721011 0.0006963901392112987 0.0007552600532866296 0.0006963901392112987 0.004374143218055875 0.0011527755280050084 0.0007552600532866296 0.0011527755280050084 0.004316334360531945" free_energy=-1097.06737048 energy=-1097.04888599 pbc="T T T"
Cr       1.43924000       1.44848000      13.58396000       0.00011600      -0.00022100      -0.00013900
Cr      -0.02317000       2.95768000       2.97210000       0.00053300      -0.00017400      -0.00013900
Cr      -1.57216000       4.47498000       4.50294000      -0.00031700      -0.00021700       0.00010200
Cr       3.02435000       9.08282000       2.99519000       0.00015100      -0.00048600       0.00019600
Ti      -1.57316000       4.50584000      10.58864000       0.00048400       0.00034500       0.00046500
Ti       1.48334000       7.51753000       7.47077000      -0.00017200       0.00042000       0.00010800
Ti       3.04574000       6.03250000      -3.01530000      -0.00007000       0.00004000      -0.00013800
Ti       7.49152000       1.58978000       1.55672000      -0.00051300      -0.00001600       0.00031200
Ti      -0.00527000       6.03537000       0.01392000       0.00026700      -0.00013500      -0.00001400
Ti       6.32561000       3.38338000       3.36151000      -0.00068800       0.00080100      -0.00016600
Ti      10.53301000       4.49558000       1.43382000      -0.00004300       0.00011900       0.00043700
Ti      -0.03709000       5.99808000       2.89586000      -0.00006000      -0.00025200       0.00033500
Ti      -0.07691000       3.00294000       6.04269000      -0.00018800       0.00013100       0.00022500
Ti       1.55336000       4.46449000       4.45497000      -0.00014700      -0.00057400      -0.00020300
Ti       2.94478000      12.12029000      -0.02172000      -0.00059400      -0.00056200      -0.00050600
Ti       0.01834000       9.17049000       2.92313000       0.00057200      -0.00016300       0.00031300
V        7.54073000       7.53867000       7.45361000      -0.00041500      -0.00047900      -0.00003300
V        2.93421000       2.97105000      12.08867000      -0.00038500       0.00006100      -0.00010300
V        4.52046000       4.49978000      10.51934000       0.00023600       0.00004900      -0.00058400
V        6.02226000       6.05355000       8.99319000      -0.00017200       0.00002200      -0.00003500
V        9.01529000       6.10278000      -6.06222000       0.00043900      -0.00027000      -0.00002700
V       -4.65248000       7.57924000       7.53068000      -0.00065900      -0.00033100      -0.00054700
V        4.42909000       1.59285000      -1.40834000      -0.00024700      -0.00052900      -0.00016200
V        5.99123000       3.13806000      -3.02570000       0.00012100       0.00025800       0.00022100
V        7.56503000       4.56845000      -4.55730000       0.00018800      -0.00002700      -0.00029400
V        2.99211000      -2.99229000       3.00681000       0.00005800      -0.00046600       0.00002900
V        4.46959000      -1.42203000       1.51859000       0.00033700      -0.00017700      -0.00015300
V        5.95152000      -0.02072000       0.04422000      -0.00023100       0.00006100      -0.00011400
V        7.64332000       1.75269000      -1.47063000       0.00010000       0.00018300       0.00093400
V        9.14946000       3.09154000      -3.07527000       0.00005100      -0.00019400       0.00016400
V        4.46536000      10.53555000       4.49153000      -0.00015800      -0.00032100       0.00007000
V        7.52849000      -1.51596000       1.49715000      -0.00050400       0.00008300       0.00032400
V        3.06718000       9.10312000       5.98977000       0.00007200       0.00009900       0.00053900
V        6.01754000       9.05485000       6.02258000      -0.00064900       0.00039200       0.00025500
V        7.59445000      -4.60038000       4.56269000      -0.00017300      -0.00036400       0.00020700
V        1.40489000       4.49781000      10.54808000       0.00019300       0.00061600       0.00006300
V       10.62731000      -1.52891000       1.53413000       0.00031400       0.00014600       0.00031200
V        4.55016000       7.55662000       7.52208000      -0.00039400       0.00026600       0.00018600
V       -1.44312000       1.50311000       1.49946000      -0.00031300       0.00013600       0.00077000
V        7.57010000      -4.62364000       7.48256000       0.00001600      -0.00027900      -0.00029100
V        9.03934000      -3.12409000       6.01546000       0.00014500      -0.00012100      -0.00043200
V        4.59486000       7.58778000      -4.59257000       0.00020700       0.00027500      -0.00019600
V        7.58435000       7.54182000      -4.59542000       0.00002800       0.00023800       0.00013800
V        1.50420000       1.49037000       1.51015000       0.00028500      -0.00025300       0.00015700
V        3.00892000       2.98541000      -0.00986000      -0.00091000      -0.00026500      -0.00016100
V        4.55990000       4.52833000      -1.46921000       0.00040900      -0.00047400      -0.00016100
V        6.05241000       6.05768000      -3.05864000      -0.00035900       0.00017000      -0.00004700
V        1.48888000      -1.47916000       4.50197000       0.00007200       0.00010500      -0.00029000
V        3.00643000       0.02211000       3.00398000      -0.00064200      -0.00002900      -0.00011900
V        4.53678000       1.52961000       1.53241000      -0.00009800      -0.00075500      -0.00006000
V        5.99384000       3.12976000      -0.02910000       0.00025900       0.00062400      -0.00033300
V        7.55770000       4.60565000      -1.57411000      -0.00030600      -0.00018300       0.00036000
V        3.02987000      -2.99531000       5.99141000      -0.00019600       0.00003800       0.00028200
V        4.47672000      -1.48230000       4.53325000       0.00002500       0.00008800      -0.00036000
V        5.99363000      -0.08618000       3.03985000       0.00007200       0.00053900       0.00032100
V        9.07417000       3.01230000      -0.12717000      -0.00041900       0.00020000      -0.00030600
V        4.57806000      -4.60159000       7.48243000       0.00003100      -0.00025600      -0.00019400
V        6.02437000      -3.07675000       5.96714000      -0.00030500       0.00012000       0.00021500
V        7.60300000      -1.54004000       4.54614000      -0.00014300      -0.00018200      -0.00002100
V        9.11001000      -0.00851000       2.95085000      -0.00011600       0.00071200       0.00076400
V       10.62772000       1.51801000       1.49988000       0.00018000       0.00039100       0.00059200
V       -2.99367000       3.00539000       3.06740000       0.00031500       0.00122900      -0.00015100
V        5.97417000      -3.18635000       9.02429000      -0.00030500       0.00011100       0.00060900
V        1.56901000       7.62995000      -1.46659000       0.00016700       0.00012800      -0.00002700
V        3.05583000       9.06766000      -3.05791000       0.00036200      -0.00054700       0.00058400
V        6.09439000       9.02216000      -3.13676000       0.00057100      -0.00009900       0.00023000
V        1.57007000       4.38766000       1.50720000       0.00027400      -0.00065900      -0.00022800
V        3.02940000       6.04196000      -0.03431000       0.00001700      -0.00027200      -0.00013200
V        4.59405000       7.60237000      -1.50898000      -0.00029200      -0.00035000      -0.00024500
V       -0.02300000       0.00657000       6.01544000       0.00017500       0.00021100      -0.00004400
V        1.51955000       1.50480000       4.45647000       0.00051600      -0.00020000      -0.00056900
V        3.11159000       2.95986000       2.98216000      -0.00009400      -0.00031900       0.00028000
V        4.57805000       4.58878000       1.52536000       0.00023500      -0.00004200      -0.00011300
V        6.04544000       6.08663000      -0.01691000       0.00071300      -0.00060100       0.00001900
V        1.46446000      -1.44891000       7.49067000       0.00009100      -0.00019600      -0.00036500
V        2.97387000       0.00445000       6.02261000       0.00003900       0.00010700      -0.00003700
V        4.54207000       1.52145000       4.54649000       0.00031700      -0.00002600      -0.00033600
V        7.57620000       4.60119000       1.35770000      -0.00020000       0.00020400      -0.00016700
V        4.53845000      -1.52174000       7.47985000       0.00003600       0.00001300      -0.00023200
V        5.98141000       0.00258000       6.01031000       0.00008000       0.00058700       0.00019300
V        7.54681000       1.35445000       4.53504000      -0.00042600      -0.00145600      -0.00026500
V        9.07683000       3.07316000       3.10021000       0.00043900       0.00134000       0.00008400
V       -4.50818000       4.55802000       4.51676000      -0.00007500      -0.00043900      -0.00035900
V       -3.05271000       6.00041000       3.05660000      -0.00000300       0.00024300      -0.00015000
V        5.80789000       0.03555000       8.98085000      -0.00052600       0.00009800      -0.00012400
V        7.50769000       1.49872000       7.53799000       0.00007400      -0.00067100       0.00052300
V       -3.01023000       3.00981000       5.99994000       0.00033700       0.00066600       0.00005100
V        1.67303000       7.63459000       1.49075000      -0.00024300      -0.00014900       0.00011500
V        3.03868000       9.09054000      -0.04268000       0.00028500      -0.00073800       0.00031600
V        6.01853000       9.01871000       0.02053000       0.00039600       0.00005500       0.00005400
V        3.08801000       6.06259000       2.93767000       0.00015100      -0.00001400       0.00024600
V        4.54675000       7.56524000       1.49646000      -0.00038800       0.00034200       0.00016600
V       -0.01813000      -0.01289000       9.07606000       0.00009300       0.00000800      -0.00016900
V        1.49351000       1.45706000       7.58418000       0.00022300       0.00020500      -0.00047400
V        3.04375000       2.94717000       6.08900000       0.00027300      -0.00041100       0.00018400
V        4.42068000       4.57300000       4.55567000      -0.00001700      -0.00025800      -0.00062200
V        6.10798000       6.09199000       3.05362000       0.00058400      -0.00051600       0.00039200
V        8.91000000       5.97056000       3.06654000       0.00101500       0.00056900      -0.00136000
V        2.96625000      -0.04606000       9.07816000       0.00024100       0.00059400      -0.00050700
V        4.46218000       1.50228000       7.52770000       0.00061500      -0.00065800      -0.00016000
V        6.03085000       3.05167000       6.06550000      -0.00021400       0.00045200       0.00045000
V        8.84404000       5.96429000       5.82786000      -0.00056300      -0.00119200      -0.00032800
V        2.87652000      -0.01471000      12.10240000      -0.00005800       0.00008700      -0.00064200
V        4.37909000       1.57710000      10.52816000       0.00036300      -0.00015700      -0.00007200
V        5.94290000       3.06037000       8.98810000      -0.00018100       0.00052500       0.00000800
V       -0.05836000      12.12355000       0.06060000      -0.00017900      -0.00033600       0.00022700
V       -3.12963000       6.01428000       6.06307000      -0.00008800      -0.00014900      -0.00007000
V        1.52376000      10.59909000       1.50543000       0.00055700       0.00025300       0.00016700
V        4.46151000      10.46414000       1.52747000       0.00022900       0.00027300       0.00008200
V       -1.63933000       4.54615000       7.61506000       0.00016000      -0.00031700      -0.00062300
V       -0.10530000       5.80036000       6.09670000      -0.00046400      -0.00034300      -0.00020000
V        1.65917000       7.59435000       4.47794000      -0.00001300      -0.00012300       0.00011900
V       -1.53552000       1.49532000      10.57717000       0.00024600      -0.00003000       0.00051600
V       -0.03350000       2.96356000       9.03882000       0.00002200      -0.00000400      -0.00022600
V        1.50025000       4.55864000       7.59562000      -0.00031300       0.00018200      -0.00084600
V        3.13613000       6.05248000       6.01385000      -0.00034100       0.00018200       0.00033200
V        4.54155000       7.56956000       4.48842000      -0.00048900      -0.00025500      -0.00020400
V       -0.05616000       0.11556000      12.10054000      -0.00037600       0.00064300      -0.00047500
V        1.46761000       1.48400000      10.55987000       0.00038400       0.00015100      -0.00001700
V        2.93721000       3.02833000       9.05847000       0.00005800       0.00042800      -0.00003900
V        4.51396000       4.55101000       7.52385000       0.00045600       0.00021400      -0.00023600
V        6.07333000       5.96464000       5.92656000      -0.00090700      -0.00002800       0.00063900
W        8.90938000       3.05132000       5.89463000       0.00082700       0.00229700       0.00117100
Zr      -1.47472000       7.63391000       4.67539000      -0.00056000       0.00018800      -0.00001100
