124
Lattice="-7.32060916410201 7.319337295524605 7.321789780937772 7.317974618296534 -7.320027788227948 7.31984589126559 7.32234188632238 7.321760647421058 -7.322480236857273" Properties=species:S:1:pos:R:3:energies:R:1:forces:R:3 energy=-1099.579010494549 free_energy=-1099.579010494549 stress="-0.0015375603360381592 -0.00018679098775850915 0.0001947656852302183 -0.00018679098775850915 -0.0016993817248484222 -0.00010684497470631645 0.0001947656852302183 -0.00010684497470631645 -0.001853375987190551" pbc="T T T"
Cr       1.45467407       1.46878851      -1.46607997      -7.31663026       0.00023779       0.00140278      -0.00056537
Cr       0.02326599       2.89668364       2.91328852      -7.41856442      -0.00101002      -0.00130167      -0.00029928
Cr      -1.47125481       4.38913045       4.41566487      -7.37516712      -0.00166035      -0.00106314       0.00067055
Cr       2.92355526       8.77659952       2.94159549      -7.24360903       0.00097704      -0.00224279       0.00295449
Ti       5.86188424      -2.92399949       2.93025870      -7.97932019       0.00010578      -0.00124727      -0.00004445
Ti       8.77989454      -0.00406837       0.00585103      -7.94637108      -0.00089000       0.00080113       0.00145105
Ti       2.93357091       5.86564611      -2.92931162      -7.93704597       0.00168582      -0.00254449      -0.00082575
Ti       7.32412943       1.47761990       1.47419812      -7.93421251      -0.00169693       0.00337462      -0.00024656
Ti       0.01270514       5.85619499      -0.01254332      -7.95257618      -0.00105176      -0.00120636      -0.00338960
Ti       5.84955573       2.93357294       2.88146484      -7.83372184       0.00182664      -0.00197875       0.00250513
Ti       2.91471124      -2.93140318       8.78122834      -7.98332797       0.00266807       0.00224896      -0.00297233
Ti       0.02129636       5.84522020       2.90840741      -8.32665313       0.00117698      -0.00033521       0.00068400
Ti       0.00921779       2.90229862       5.86345189      -8.32183123      -0.00033543      -0.00022589      -0.00048323
Ti       1.46807908       4.38090601       4.40309540      -8.32976925       0.00068846      -0.00194383       0.00304845
Ti      -4.40831136       4.39603092       7.32486175      -8.49647044      -0.00240206      -0.00346566      -0.00372243
Ti       0.01224629       8.79020538       2.93015221      -8.10602354      -0.00289978       0.00266914       0.00113743
V       -0.00337734       0.00936809       0.00218763      -9.09377384      -0.00104355       0.00098526      -0.00265194
V        2.92371339       2.93794510      -2.93294861      -9.02468388      -0.00013543       0.00029101       0.00092785
V        4.38329077       4.40439016      -4.38540545      -8.92769302       0.00211750      -0.00154949       0.00246510
V        5.85440357       5.84891607      -5.87448486      -8.95844828       0.00093238      -0.00128403      -0.00117559
V        1.45114465      -1.46205893       1.46257590      -9.04271320       0.00037840       0.00035343       0.00060149
V        2.91389962       0.00748698       0.01112775      -9.02031342       0.00025455       0.00089718       0.00058230
V        4.39079310       1.46222158      -1.46463714      -9.13397355       0.00015328       0.00110908       0.00008463
V        5.85252229       2.95638215      -2.92265628      -8.95358577       0.00057995      -0.00003859      -0.00187013
V        7.32495750       4.39767533      -4.39324431      -8.96626299      -0.00156888      -0.00258614       0.00202036
V        2.92752710      -2.91975793       2.92990104      -9.04793434      -0.00018026       0.00017068       0.00115143
V        4.38553405      -1.46065530       1.47423054      -8.94132251      -0.00192916      -0.00189311      -0.00156841
V        5.86051571       0.00482273       0.03343677      -9.03378105      -0.00025421      -0.00031425      -0.00080218
V        7.30198423       1.46034267      -1.48276795      -9.04287908       0.00002633      -0.00032106       0.00022977
V        8.78845494       2.95192919      -2.91042372      -9.04960104      -0.00015363      -0.00018837       0.00110706
V        4.40372312      -4.38334880       4.39636163      -9.03630728       0.00031245      -0.00070583       0.00063609
V        7.31959430      -1.45323403       1.47929056      -8.94845020       0.00093898      -0.00175449      -0.00114717
V       10.25242626       1.46340828      -1.45504339      -9.10647482       0.00112671       0.00070750       0.00008247
V        5.84400314      -5.85150664       5.85557183      -9.12093023       0.00089841      -0.00196335      -0.00037535
V        7.31734252      -4.38800478       4.38441348      -9.07807656      -0.00075889       0.00027393       0.00025143
V        8.78581696      -2.91595519       2.92523184      -8.98188568      -0.00058420      -0.00036345       0.00095115
V       10.26090135      -1.46534569       1.46680748      -8.92701432      -0.00152597       0.00079600       0.00260596
V       11.70890700       0.00290657       0.00908141      -8.89094095       0.00370427       0.00076844      -0.00176452
V       -1.46065030       1.45774100       1.46944880      -9.14426974      -0.00094506       0.00081324       0.00007496
V       -0.00442104       2.92429301      -0.01566215      -9.16629559      -0.00124362      -0.00018786       0.00064997
V        1.47549570       4.40177655      -1.47784729      -9.07440818      -0.00011409      -0.00202905       0.00054148
V        4.39124207       7.31693722      -4.38711328      -8.99729169      -0.00064456       0.00089148       0.00123197
V       -0.00512157      -0.02300392       2.92234973      -9.06100297      -0.00000867       0.00170665       0.00186936
V        1.46332945       1.45387243       1.47189058      -9.17655681      -0.00192212      -0.00163031      -0.00145511
V        2.93037683       2.93067152      -0.00510659      -9.12942965      -0.00042950      -0.00023624      -0.00027178
V        4.39150137       4.40988982      -1.46858926      -8.97358460       0.00054717      -0.00043897       0.00029702
V        5.85289223       5.85790960      -2.92543123      -8.90279611      -0.00108468       0.00008565       0.00121316
V        1.46351589      -1.46478354       4.39640922      -8.93551188      -0.00191866      -0.00184509      -0.00063451
V        2.93365744      -0.00042547       2.93733653      -9.03873435      -0.00258443      -0.00200103      -0.00153779
V        4.39727198       1.46934826       1.47310899      -8.95745494       0.00293033       0.00272852       0.00113071
V        5.85835882       2.93550513       0.00521713      -8.96596133       0.00006551      -0.00019003       0.00274296
V        7.32307419       4.40347551      -1.46674473      -8.97484084      -0.00053203      -0.00046402      -0.00014844
V        2.92529931      -2.92277354       5.86065261      -8.97329740       0.00019004      -0.00082367       0.00031064
V        4.38692280      -1.46478055       4.38914109      -8.92957701       0.00148689      -0.00219755       0.00033493
V        5.86145472       0.01566121       2.94026157      -8.92781949      -0.00034197       0.00175419       0.00024274
V        8.78268793       2.92466879       0.00297261      -8.94883671       0.00017236       0.00006888      -0.00141577
V        4.38713004      -4.38984816       7.32285417      -9.01155820       0.00011068       0.00028130      -0.00084820
V        5.85088397      -2.93122362       5.84637500      -8.98538355       0.00012249       0.00208183      -0.00011260
V        7.32811873      -1.46546424       4.39032311      -8.90854042      -0.00093797      -0.00243156       0.00146896
V        8.78341433       0.00827330       2.92407757      -9.03388378       0.00186858      -0.00131745      -0.00144299
V       10.24420938       1.46537181       1.46746017      -8.93079884       0.00174193      -0.00079470      -0.00136885
V       -2.93747031       2.92273453       2.92189436      -9.25412243       0.00044370      -0.00051404       0.00018317
V       -1.46808320       4.37857769       1.44938375      -9.17900246      -0.00055682      -0.00114823      -0.00036215
V        1.46143997       7.32162309      -1.47739795      -9.21339046      -0.00098233       0.00157610       0.00015265
V        2.92870122       8.78394881      -2.92695071      -9.45010239      -0.00212542       0.00367559       0.00286745
V       -1.46396880       1.46369053       4.38749341      -9.20227667      -0.00081769       0.00057750       0.00115788
V        1.47599601       4.38074474       1.45879753      -9.14346798      -0.00008613      -0.00078337       0.00040996
V        2.93332667       5.86184850      -0.00564458      -8.96657596       0.00175963      -0.00156221       0.00114543
V        4.39353701       7.31865454      -1.46655576      -9.01566327       0.00034965       0.00087833      -0.00035074
V       -0.00117931      -0.00128342       5.86060120      -8.95930543      -0.00210797       0.00081673       0.00011793
V        1.45773820       1.45136889       4.37969165      -9.08682189      -0.00186389       0.00134794       0.00295709
V        2.95511211       2.92819517       2.93882337      -9.08368013       0.00052351       0.00026705       0.00305396
V        4.40403555       4.39514119       1.46138771      -8.95206602       0.00325234      -0.00222375       0.00149021
V        5.85640413       5.86553572      -0.00096606      -8.95911324      -0.00043011       0.00078842      -0.00097818
V        1.46454173      -1.46677654       7.32045299      -8.92445832      -0.00040838       0.00035718      -0.00025485
V        2.94009194       0.00754827       5.85447419      -8.97889586       0.00070193       0.00097624      -0.00074133
V        4.44263875       1.49761234       4.42243170      -8.77287846      -0.00139502       0.00010079      -0.00224955
V        7.31829100       4.39012215       1.46475026      -8.90601139      -0.00082316      -0.00171804      -0.00115239
V        4.38063287      -1.47004503       7.32543161      -8.90735753       0.00233987      -0.00045012      -0.00329932
V        5.85497521      -0.04171526       5.85071581      -8.83070582       0.00285552       0.00147884       0.00019947
V        7.29299272       1.50278274       4.41581630      -9.20115037      -0.00190648      -0.00266156      -0.00317849
V        8.76768669       2.92500183       2.92415156      -9.23993706      -0.00116445      -0.00047772       0.00200362
V       -4.40861406       4.37859279       4.39109161      -9.49718615      -0.00021204      -0.00288944       0.00206815
V       -2.94335597       5.86829340       2.92642179      -9.17030503      -0.00052425       0.00136226      -0.00090130
V       -1.46658756       7.33425462       1.42494098      -9.02824472       0.00106039       0.00248926      -0.00120836
V       -0.03161855       8.81620851      -0.04915161      -9.20687066      -0.00093576      -0.00366614       0.00345629
V       -2.92260572       2.91753658       5.86332774      -9.35297220      -0.00731507      -0.00064969      -0.00146965
V        1.46706296       7.30434634       1.43166403      -9.14883375       0.00214803      -0.00266726       0.00256613
V        2.92513341       8.78742203      -0.00860922      -9.54156258      -0.00223696       0.00322914      -0.00385178
V       -1.46677354       1.46312431       7.31590596      -9.05663981      -0.00042324       0.00079893      -0.00000978
V        2.93892075       5.84177579       2.93751848      -9.18287420      -0.00210743       0.00085310      -0.00030505
V        4.40490476       7.31947787       1.45537093      -9.03421558       0.00045658       0.00112937      -0.00033972
V       -0.00206276      -0.00719438       8.78053202      -8.96578004       0.00102713       0.00319203      -0.00179542
V        1.44817315       1.46350615       7.31735239      -8.92730631      -0.00178890       0.00192954      -0.00166040
V        2.87475829       2.93141810       5.85155104      -8.82483793       0.00071839       0.00066495      -0.00045642
V        4.44144406       4.34513009       4.42911133      -8.71404913      -0.00130889      -0.00037378      -0.00002293
V        5.85584765       5.85039049       2.93697710      -8.96260132       0.00097386      -0.00050779       0.00158657
V        1.45633604      -1.46741017      10.24476786      -9.06142282       0.00310246       0.00300062      -0.00235564
V        2.92136802       0.00580651       8.76685007      -8.92559275      -0.00016018       0.00093013       0.00052722
V        4.43052112       1.50900184       7.27559140      -8.77489153       0.00259083       0.00175191      -0.00143500
V        7.29201036       4.36325092       4.41412344      -9.20409019       0.00058874       0.00379496      -0.00397599
V       -5.88383717       5.84898439       5.85496095      -9.33325994      -0.00151712      -0.00119838      -0.00076493
V       -4.42153695       7.32319044       4.38573408      -9.09338020       0.00244669       0.00335395      -0.00312159
V       -2.91420992       8.77011197       2.94489007      -9.01842495       0.00283029       0.00431417       0.00048235
V       -1.46391557      10.25622003       1.50703960      -8.80664756       0.00281260      -0.00118691      -0.00114801
V       -0.03760466      11.67735126      -0.04088216      -9.16771086      -0.00103607       0.00282853       0.00341945
V       -2.93901568       5.87954172       5.86106875      -9.22121326      -0.00005310      -0.00045519      -0.00039654
V        1.44178648      10.26678683       1.44767974      -9.29539840      -0.00160733      -0.00066317      -0.00003609
V       -2.91796887       2.93187508       8.78602794      -9.11928123      -0.00028502      -0.00035605      -0.00038808
V       -1.46373503       4.38433766       7.33686023      -9.09472006      -0.00077002      -0.00064354      -0.00064117
V        0.00247311       5.86957246       5.87717687      -9.20274420      -0.00158527      -0.00126818       0.00100813
V        1.48545276       7.28498662       4.41922584      -9.10561382      -0.00019847      -0.00038754       0.00187227
V       -1.46001608       1.46400532      10.24381928      -9.07334855      -0.00029875       0.00154852       0.00010297
V       -0.00256524       2.92852070       8.78095879      -8.89656308      -0.00139938      -0.00001200      -0.00068691
V        1.45744626       4.39914800       7.32297778      -8.97766916      -0.00218775      -0.00383026      -0.00112103
V        2.93978295       5.83744206       5.85795595      -9.01188191       0.00054186      -0.00205815      -0.00043279
V        4.40651960       7.31812902       4.39572665      -9.04963419       0.00340176       0.00088187       0.00193294
V        0.00035225       0.00928395      11.71492745      -9.02922040      -0.00057896       0.00183258       0.00133010
V        1.46107256       1.46557366      10.23502781      -9.05848181      -0.00058672       0.00052389       0.00092495
V        2.94727645       2.92588766       8.77686815      -8.97835249       0.00182152      -0.00011215      -0.00084343
V        4.43434878       4.35774833       7.29361490      -8.77855500      -0.00109506       0.00104677       0.00089009
V        5.85265496       5.90102687       5.85425023      -8.86557414       0.00168205      -0.00055459      -0.00035064
W        1.51172536      10.24406423      -1.48593746      -6.61415854       0.00731054       0.00085038      -0.00174433
Zr      -1.48836831       7.29997489       4.42432819      -8.00374266      -0.00009823      -0.00028446       0.00100680
