 vasp.6.4.2 20Jul23 (build Sep 20 2024 16:56:05) complex                         
 executed on              LinuxNV date 2024.12.10  18:56:50
 running    4 mpi-ranks, with    8 threads/rank, on    1 nodes
 distrk:  each k-point on    4 cores,    1 groups
 distr:  one band on NCORE=   1 cores,    4 groups
 OpenACC runtime initialized ...    4 GPUs detected


--------------------------------------------------------------------------------------------------------


 INCAR:
   ENCUT = 520.000000
   POTIM = 0.200000
   SIGMA = 0.200000
   EDIFF = 1.00e-06
   EDIFFG = -1.00e-02
   ALGO = Normal
   GGA = PE
   PREC = Accurate
   IBRION = 2
   ISIF = 2
   ISMEAR = 1
   LORBIT = 11
   NELM = 100
   NSW = -1
   LCHARG = .TRUE.
   LWAVE = .FALSE.
   LREAL = .FALSE.
   NSIM = 32

 POTCAR:    PAW_PBE V_pv 07Sep2000                
 POTCAR:    PAW_PBE Cr_pv 02Aug2007               
 POTCAR:    PAW_PBE Ti_pv 07Sep2000               
 POTCAR:    PAW_PBE V_pv 07Sep2000                
   SHA256 =  1175d3c8cb4ffd1d150a520fa74fae5c3ec72c0849b5615a94a5372dd2cf07f7 V_pv/POTCAR           
   COPYR  = (c) Copyright 07Sep2000 Georg Kresse                                                    
   COPYR  = This file is part of the software VASP. Any use, copying, and all other rights are regul
   COPYR  = If you do not have a valid VASP license, you may not use, copy or distribute this file. 
   VRHFIN =V: p6 d4 s1                                                                              
   LEXCH  = PE                                                                                      
   EATOM  =  1321.6206 eV,   97.1364 Ry                                                             
                                                                                                    
   TITEL  = PAW_PBE V_pv 07Sep2000                                                                  
   LULTRA =        F    use ultrasoft PP ?                                                          
   IUNSCR =        1    unscreen: 0-lin 1-nonlin 2-no                                               
   RPACOR =    1.700    partial core radius                                                         
   POMASS =   50.941; ZVAL   =   11.000    mass and valenz                                          
   RCORE  =    2.300    outmost cutoff radius                                                       
   RWIGS  =    2.300; RWIGS  =    1.217    wigner-seitz radius (au A)                               
   ENMAX  =  263.673; ENMIN  =  197.755 eV                                                          
   RCLOC  =    1.779    cutoff for local pot                                                        
   LCOR   =        T    correct aug charges                                                         
   LPAW   =        T    paw PP                                                                      
   EAUG   =  598.473                                                                                
   DEXC   =    0.000                                                                                
   RMAX   =    2.359    core radius for proj-oper                                                   
   RAUG   =    1.300    factor for augmentation sphere                                              
   RDEP   =    2.430    radius for radial grids                                                     
   RDEPT  =    1.700    core radius for aug-charge                                                  
                                                                                                    
   Atomic configuration                                                                             
    8 entries                                                                                       
     n  l   j            E        occ.                                                              
     1  0  0.50     -5360.7193   2.0000                                                             
     2  0  0.50      -598.4546   2.0000                                                             
     2  1  1.50      -499.0155   6.0000                                                             
     3  0  0.50       -66.5711   2.0000                                                             
     3  1  1.50       -40.5282   6.0000                                                             
     3  2  2.50        -2.4291   4.0000                                                             
     4  0  0.50        -3.8743   1.0000                                                             
     4  3  2.50        -1.3606   0.0000                                                             
   Description                                                                                      
     l       E           TYP  RCUT    TYP  RCUT                                                     
     1    -40.5282431     23  2.000                                                                 
     1      5.4423304     23  2.000                                                                 
     2     -2.4290905     23  2.300                                                                 
     2     -1.0472488     23  2.300                                                                 
     0     -3.8742754     23  2.300                                                                 
     0     27.2116520     23  2.300                                                                 
  local pseudopotential read in
  partial core-charges read in
  partial kinetic energy density read in
  atomic valenz-charges read in
  non local Contribution for L=            1  read in
    real space projection operators read in
  non local Contribution for L=            1  read in
    real space projection operators read in
  non local Contribution for L=            2  read in
    real space projection operators read in
  non local Contribution for L=            2  read in
    real space projection operators read in
  non local Contribution for L=            0  read in
    real space projection operators read in
  non local Contribution for L=            0  read in
    real space projection operators read in
    PAW grid and wavefunctions read in
 
   number of l-projection  operators is LMAX  =            6
   number of lm-projection operators is LMMAX =           18
 
 POTCAR:    PAW_PBE Cr_pv 02Aug2007               
   SHA256 =  c9a7df34d3cdbacf1090e328ef39c0b420964e11c23f63548d1ac9dd218cdba0 Cr_pv/POTCAR          
   COPYR  = (c) Copyright 02Aug2007 Georg Kresse                                                    
   COPYR  = This file is part of the software VASP. Any use, copying, and all other rights are regul
   COPYR  = If you do not have a valid VASP license, you may not use, copy or distribute this file. 
   VRHFIN =Cr : p6d5s1                                                                              
   LEXCH  = PE                                                                                      
   EATOM  =  1647.9177 eV,  121.1185 Ry                                                             
                                                                                                    
   TITEL  = PAW_PBE Cr_pv 02Aug2007                                                                 
   LULTRA =        F    use ultrasoft PP ?                                                          
   IUNSCR =        1    unscreen: 0-lin 1-nonlin 2-no                                               
   RPACOR =    2.080    partial core radius                                                         
   POMASS =   51.996; ZVAL   =   12.000    mass and valenz                                          
   RCORE  =    2.300    outmost cutoff radius                                                       
   RWIGS  =    2.500; RWIGS  =    1.323    wigner-seitz radius (au A)                               
   ENMAX  =  265.681; ENMIN  =  199.261 eV                                                          
   ICORE  =        3    local potential                                                             
   LCOR   =        T    correct aug charges                                                         
   LPAW   =        T    paw PP                                                                      
   EAUG   =  519.424                                                                                
   DEXC   =    0.000                                                                                
   RMAX   =    2.356    core radius for proj-oper                                                   
   RAUG   =    1.300    factor for augmentation sphere                                              
   RDEP   =    2.447    radius for radial grids                                                     
   RDEPT  =    1.882    core radius for aug-charge                                                  
                                                                                                    
   Atomic configuration                                                                             
    8 entries                                                                                       
     n  l   j            E        occ.                                                              
     1  0  0.50     -5880.4963   2.0000                                                             
     2  0  0.50      -667.0865   2.0000                                                             
     2  1  1.50      -560.6250   6.0000                                                             
     3  0  0.50       -73.9860   2.0000                                                             
     3  1  1.50       -45.4378   6.0000                                                             
     3  2  2.50        -2.9137   5.0000                                                             
     4  0  0.50        -4.0071   1.0000                                                             
     4  3  2.50        -1.3606   0.0000                                                             
   Description                                                                                      
     l       E           TYP  RCUT    TYP  RCUT                                                     
     1    -45.4377911     23  2.000                                                                 
     1      1.3605826     23  2.000                                                                 
     2     -2.9136672     23  2.300                                                                 
     2     -4.2742498     23  2.300                                                                 
     0     -4.0071320     23  2.300                                                                 
     0      9.4498803     23  2.300                                                                 
     3      2.7211652     23  2.300                                                                 
  local pseudopotential read in
  partial core-charges read in
  partial kinetic energy density read in
  atomic valenz-charges read in
  non local Contribution for L=            1  read in
    real space projection operators read in
  non local Contribution for L=            1  read in
    real space projection operators read in
  non local Contribution for L=            2  read in
    real space projection operators read in
  non local Contribution for L=            2  read in
    real space projection operators read in
  non local Contribution for L=            0  read in
    real space projection operators read in
  non local Contribution for L=            0  read in
    real space projection operators read in
    PAW grid and wavefunctions read in
 
   number of l-projection  operators is LMAX  =            6
   number of lm-projection operators is LMMAX =           18
 
 POTCAR:    PAW_PBE Ti_pv 07Sep2000               
   SHA256 =  f757a1b2c6d082f4c628fa3d987464a8763bf92e53844ac0500b0e2ddc9ce5c0 Ti_pv/POTCAR          
   COPYR  = (c) Copyright 07Sep2000 Georg Kresse                                                    
   COPYR  = This file is part of the software VASP. Any use, copying, and all other rights are regul
   COPYR  = If you do not have a valid VASP license, you may not use, copy or distribute this file. 
   VRHFIN =Ti: d3 s1                                                                                
   LEXCH  = PE                                                                                      
   EATOM  =  1042.5995 eV,   76.6289 Ry                                                             
                                                                                                    
   TITEL  = PAW_PBE Ti_pv 07Sep2000                                                                 
   LULTRA =        F    use ultrasoft PP ?                                                          
   IUNSCR =        1    unscreen: 0-lin 1-nonlin 2-no                                               
   RPACOR =    2.200    partial core radius                                                         
   POMASS =   47.880; ZVAL   =   10.000    mass and valenz                                          
   RCORE  =    2.500    outmost cutoff radius                                                       
   RWIGS  =    2.500; RWIGS  =    1.323    wigner-seitz radius (au A)                               
   ENMAX  =  222.335; ENMIN  =  166.751 eV                                                          
   RCLOC  =    1.701    cutoff for local pot                                                        
   LCOR   =        T    correct aug charges                                                         
   LPAW   =        T    paw PP                                                                      
   EAUG   =  482.848                                                                                
   DEXC   =    0.000                                                                                
   RMAX   =    2.564    core radius for proj-oper                                                   
   RAUG   =    1.300    factor for augmentation sphere                                              
   RDEP   =    2.538    radius for radial grids                                                     
   RDEPT  =    1.952    core radius for aug-charge                                                  
                                                                                                    
   Atomic configuration                                                                             
    8 entries                                                                                       
     n  l   j            E        occ.                                                              
     1  0  0.50     -4865.3608   2.0000                                                             
     2  0  0.50      -533.1368   2.0000                                                             
     2  1  1.50      -440.5031   6.0000                                                             
     3  0  0.50       -59.3186   2.0000                                                             
     3  1  1.50       -35.7012   6.0000                                                             
     3  2  2.50        -1.9157   3.0000                                                             
     4  0  0.50        -3.7291   1.0000                                                             
     4  3  2.50        -1.3606   0.0000                                                             
   Description                                                                                      
     l       E           TYP  RCUT    TYP  RCUT                                                     
     1    -35.7012140     23  2.300                                                                 
     1     -1.3605826     23  2.300                                                                 
     2     -1.9156996     23  2.500                                                                 
     2     -0.4063033     23  2.500                                                                 
     0     -3.7290856     23  2.500                                                                 
     0     20.4087390     23  2.500                                                                 
  local pseudopotential read in
  partial core-charges read in
  partial kinetic energy density read in
  atomic valenz-charges read in
  non local Contribution for L=            1  read in
    real space projection operators read in
  non local Contribution for L=            1  read in
    real space projection operators read in
  non local Contribution for L=            2  read in
    real space projection operators read in
  non local Contribution for L=            2  read in
    real space projection operators read in
  non local Contribution for L=            0  read in
    real space projection operators read in
  non local Contribution for L=            0  read in
    real space projection operators read in
    PAW grid and wavefunctions read in
 
   number of l-projection  operators is LMAX  =            6
   number of lm-projection operators is LMMAX =           18
 
 -----------------------------------------------------------------------------
|                                                                             |
|               ----> ADVICE to this user running VASP <----                  |
|                                                                             |
|     You have a (more or less) 'large supercell' and for larger cells it     |
|     might be more efficient to use real-space projection operators.         |
|     Therefore, try LREAL= Auto in the INCAR file.                           |
|     Mind: For very accurate calculation, you might also keep the            |
|     reciprocal projection scheme (i.e. LREAL=.FALSE.).                      |
|                                                                             |
 -----------------------------------------------------------------------------

  PAW_PBE V_pv 07Sep2000                :
 energy of atom  1       EATOM=-1321.6206
 kinetic energy error for atom=    0.0054 (will be added to EATOM!!)
  PAW_PBE Cr_pv 02Aug2007               :
 energy of atom  2       EATOM=-1647.9177
 kinetic energy error for atom=    0.0057 (will be added to EATOM!!)
  PAW_PBE Ti_pv 07Sep2000               :
 energy of atom  3       EATOM=-1042.5995
 kinetic energy error for atom=    0.0019 (will be added to EATOM!!)
 
 
 POSCAR: V  Cr Ti
  positions in cartesian coordinates
  No initial velocities read in
 exchange correlation table for  LEXCH =        8
   RHO(1)=    0.500       N(1)  =     2000
   RHO(2)=  100.500       N(2)  =     4000
 


--------------------------------------------------------------------------------------------------------


 ion  position               nearest neighbor table
   1  0.006  0.005  0.005-   2 2.53 115 2.54  28 2.56  22 2.57   5 2.59  24 2.59 114 2.60  95 2.61
                           118 2.95
   2  0.996  0.001  0.195- 110 2.53  96 2.53   1 2.53   6 2.53  29 2.59  23 2.59   3 2.61  18 2.61

   3  0.012  0.001  0.400- 111 2.61  30 2.61   2 2.61   7 2.62  19 2.62   4 2.63  97 2.71  18 2.83
                            29 2.83  25 2.87
   4  0.004  0.000  0.599-  25 2.55  98 2.56  20 2.57   8 2.58 112 2.59  31 2.59   3 2.63   5 2.66
                           116 3.01
   5  0.002  0.005  0.804- 116 2.51 118 2.52  27 2.58   1 2.59  21 2.61  26 2.61 113 2.63   4 2.66
                            98 2.88 115 2.95
   6  0.006  0.202  0.201-   2 2.53 115 2.54  28 2.56  34 2.56   9 2.59   7 2.59  99 2.60  95 2.61
                           119 2.95
   7  0.003  0.199  0.399- 100 2.58  96 2.58  29 2.59  35 2.59   6 2.59   3 2.62  10 2.62   8 2.63

   8  0.004  0.199  0.601-  30 2.49   4 2.58  97 2.58 116 2.62  11 2.62  36 2.62   7 2.63 122 2.67

   9  0.002  0.398  0.197- 117 2.51 119 2.52  33 2.58   6 2.59  10 2.61  39 2.61 102 2.63  14 2.66
                           101 2.88 115 2.95
  10  0.003  0.402  0.400-  34 2.57  15 2.59  40 2.59 103 2.60   9 2.61  99 2.62  11 2.62   7 2.62

  11  0.002  0.400  0.600-  35 2.58  41 2.60 104 2.60 100 2.61   8 2.62  10 2.62  16 2.63  12 2.68
                           122 3.00
  12  0.009  0.400  0.809-  37 2.54  36 2.54 117 2.58 116 2.58  11 2.68  17 2.68 124 2.70 122 2.70
                            32 2.88 123 3.00
  13  0.004  0.603  0.005-  43 2.49  14 2.58 105 2.58 117 2.62  17 2.62  37 2.62  24 2.63 124 2.67

  14  0.004  0.605  0.204-  44 2.55 101 2.56  15 2.57  13 2.58 106 2.59  38 2.59  18 2.63   9 2.66
                           117 3.01
  15  0.004  0.601  0.401-  19 2.55  14 2.57  39 2.57  45 2.58 102 2.59  10 2.59  16 2.60 107 2.63

  16  0.003  0.602  0.601-  46 2.59  40 2.59  15 2.60  20 2.60 103 2.61 108 2.61  17 2.63  11 2.63
                           104 2.91
  17  0.002  0.602  0.802-  42 2.58  41 2.60 104 2.60 109 2.61  13 2.62  21 2.62  16 2.63  12 2.68
                           124 3.00
  18  0.012  0.812  0.211-  43 2.61 111 2.61   2 2.61  24 2.62  19 2.62  14 2.63 105 2.71   3 2.83
                            23 2.83  44 2.87
  19  0.995  0.795  0.401-  20 2.55  15 2.55 106 2.55 112 2.55  25 2.61  44 2.61  18 2.62   3 2.62
                           107 2.90
  20  0.003  0.803  0.602-  19 2.55   4 2.57  26 2.57  45 2.58 113 2.59  21 2.59  16 2.60 107 2.63

  21  0.003  0.804  0.802-  22 2.57  20 2.59  46 2.59 108 2.60   5 2.61 114 2.62  17 2.62  24 2.62

  22  0.201  0.001  0.001-   1 2.57  42 2.57  21 2.57  53 2.57  27 2.58  47 2.59  26 2.59  23 2.71

  23  0.199  0.001  0.209-  24 2.59  28 2.59   2 2.59  54 2.62  43 2.62  48 2.63  22 2.71  49 2.81
                            18 2.83  29 2.85
  24  0.003  0.804  0.004- 109 2.58 110 2.58  23 2.59  42 2.59   1 2.59  18 2.62  21 2.62  13 2.63

  25  0.199  0.000  0.594-  50 2.53   4 2.55  56 2.61  19 2.61  45 2.62  30 2.64  26 2.69  55 2.86
                             3 2.87
  26  0.201  0.001  0.801-  20 2.57  52 2.59  22 2.59  46 2.60  51 2.60  31 2.60   5 2.61  25 2.69

  27  0.201  0.201  0.005- 115 2.54  58 2.58   5 2.58  22 2.58  28 2.59  32 2.59  31 2.60  52 2.60
                           116 2.94
  28  0.203  0.200  0.204-   1 2.56   6 2.56  53 2.58  59 2.58  27 2.59  33 2.59  29 2.59  23 2.59
                            54 2.91 115 3.00
  29  0.199  0.191  0.399-   7 2.59  28 2.59   2 2.59  54 2.62  30 2.62  60 2.63  34 2.71  55 2.81
                             3 2.83  23 2.85
  30  0.200  0.207  0.605-   8 2.49  55 2.54  35 2.55  61 2.57   3 2.61  31 2.61  29 2.62  25 2.64

  31  0.196  0.201  0.803- 116 2.43  56 2.58   4 2.59  27 2.60  26 2.60  30 2.61  57 2.62  36 2.62

  32  0.198  0.398  0.000- 116 2.51 117 2.51  33 2.59  27 2.59  63 2.61  57 2.61  36 2.63  37 2.63
                            12 2.88 115 2.95
  33  0.201  0.397  0.200- 115 2.54  58 2.58   9 2.58  34 2.58  28 2.59  32 2.59  38 2.60  64 2.60
                           117 2.94
  34  0.201  0.400  0.400-   6 2.56  35 2.57  10 2.57  59 2.57  33 2.58  65 2.59  39 2.59  29 2.71

  35  0.200  0.401  0.598-  30 2.55  34 2.57  60 2.58  40 2.58  11 2.58   7 2.59  66 2.62  36 2.63

  36  0.203  0.404  0.802-  12 2.54  41 2.58  62 2.58  61 2.59  31 2.62   8 2.62  32 2.63  35 2.63
                           116 2.99
  37  0.203  0.601  0.999-  12 2.54  41 2.58  62 2.58  68 2.59  38 2.62  13 2.62  32 2.63  42 2.63
                           117 2.99
  38  0.196  0.594  0.196- 117 2.43  69 2.58  14 2.59  33 2.60  39 2.60  43 2.61  63 2.62  37 2.62

  39  0.201  0.599  0.400-  15 2.57  64 2.59  34 2.59  40 2.60  70 2.60  38 2.60   9 2.61  44 2.69

  40  0.202  0.601  0.600-  65 2.58  35 2.58  16 2.59  10 2.59  71 2.59  41 2.60  39 2.60  45 2.61

  41  0.201  0.601  0.800-  37 2.58  36 2.58  67 2.60  66 2.60  40 2.60  46 2.60  11 2.60  17 2.60

  42  0.200  0.802  0.999-  43 2.55  22 2.57  48 2.58  46 2.58  17 2.58  24 2.59  67 2.62  37 2.63

  43  0.200  0.795  0.193-  13 2.49  49 2.54  42 2.55  68 2.57  18 2.61  38 2.61  23 2.62  44 2.64

  44  0.199  0.805  0.399-  50 2.53  14 2.55  69 2.61  19 2.61  45 2.62  43 2.64  39 2.69  49 2.86
                            18 2.87
  45  0.201  0.801  0.600-  15 2.58  20 2.58  51 2.61  70 2.61  46 2.61  40 2.61  44 2.62  25 2.62
                            50 2.89
  46  0.202  0.802  0.801-  47 2.58  42 2.58  16 2.59  21 2.59  71 2.60  41 2.60  26 2.60  45 2.61

  47  0.399  0.000  0.999-  46 2.58  22 2.59  51 2.59  52 2.60  48 2.60  72 2.60  77 2.60  67 2.61

  48  0.398  1.000  0.199-  42 2.58  53 2.60  47 2.60  78 2.60  49 2.60  68 2.61  23 2.63  73 2.65

  49  0.384  0.995  0.392-  79 2.51  43 2.54  48 2.60  50 2.65  69 2.66  54 2.66  74 2.76  23 2.81
                            44 2.86
  50  0.393  0.994  0.599-  44 2.53  25 2.53  51 2.55  70 2.55 121 2.64 120 2.64  49 2.65  55 2.65
                            45 2.89
  51  0.401  0.002  0.801-  50 2.55  47 2.59  26 2.60  56 2.60  45 2.61  71 2.61  76 2.62  75 2.69
                           121 3.01
  52  0.400  0.201  0.001-  53 2.56  56 2.58  26 2.59  81 2.59  47 2.60  57 2.60  27 2.60  76 2.64

  53  0.400  0.200  0.198-  54 2.54  52 2.56  22 2.57  28 2.58  77 2.59  58 2.60  48 2.60  82 2.64

  54  0.405  0.208  0.397-  53 2.54  59 2.54  83 2.59  78 2.59  23 2.62  29 2.62  55 2.66  49 2.66
                            79 2.71  28 2.91
  55  0.384  0.192  0.589-  79 2.51  30 2.54  60 2.60  50 2.65  54 2.66  56 2.66  84 2.76  29 2.81
                            25 2.86
  56  0.394  0.200  0.800-  52 2.58  31 2.58  61 2.58  51 2.60  25 2.61  80 2.64 121 2.66  55 2.66

  57  0.401  0.402  0.002-  58 2.58  62 2.59  86 2.60  52 2.60  61 2.61  32 2.61  31 2.62  80 2.63

  58  0.401  0.401  0.200-  27 2.58  33 2.58  57 2.58  63 2.58  87 2.60  81 2.60  59 2.60  53 2.60

  59  0.400  0.403  0.400-  54 2.54  64 2.56  34 2.57  28 2.58  88 2.59  58 2.60  60 2.60  82 2.64

  60  0.398  0.400  0.599-  35 2.58  59 2.60  65 2.60  83 2.60  55 2.60  61 2.61  29 2.63  89 2.65

  61  0.401  0.402  0.802-  84 2.49  30 2.57  56 2.58  36 2.59  66 2.60  57 2.61  85 2.61  60 2.61

  62  0.403  0.602  0.001-  36 2.58  37 2.58  91 2.59  85 2.59  63 2.59  57 2.59  66 2.60  67 2.60

  63  0.401  0.599  0.199-  58 2.58  62 2.59  86 2.60  64 2.60  68 2.61  32 2.61  38 2.62  92 2.63

  64  0.400  0.599  0.399-  59 2.56  69 2.58  39 2.59  87 2.59  65 2.60  63 2.60  33 2.60  93 2.64

  65  0.400  0.601  0.599-  40 2.58  34 2.59  70 2.59  64 2.60  94 2.60  60 2.60  88 2.60  66 2.61

  66  0.401  0.602  0.801-  41 2.60  62 2.60  89 2.60  71 2.60  61 2.60  90 2.60  65 2.61  35 2.62

  67  0.401  0.800  1.000-  41 2.60  73 2.60  62 2.60  71 2.60  68 2.60  90 2.60  47 2.61  42 2.62

  68  0.401  0.800  0.200-  74 2.49  43 2.57  69 2.58  37 2.59  67 2.60  63 2.61  91 2.61  48 2.61

  69  0.394  0.794  0.394-  38 2.58  64 2.58  68 2.58  70 2.60  44 2.61  92 2.64 120 2.66  49 2.66

  70  0.401  0.801  0.599-  50 2.55  65 2.59  39 2.60  69 2.60  45 2.61  71 2.61  93 2.62  75 2.69
                           120 3.01
  71  0.401  0.802  0.800-  72 2.59  94 2.59  40 2.59  46 2.60  67 2.60  66 2.60  70 2.61  51 2.61

  72  0.600  0.999  0.000-  75 2.54  73 2.56  90 2.59  76 2.59  71 2.59  99 2.60  47 2.60  95 2.63
                           119 3.00
  73  0.602  0.000  0.199-  74 2.51  72 2.56 100 2.59  67 2.60  96 2.60  91 2.60  77 2.62  48 2.65

  74  0.594  0.994  0.387-  68 2.49  73 2.51  92 2.60  78 2.62  97 2.64 120 2.66 122 2.69  49 2.76
                            91 2.91
  75  0.609  0.001  0.809-  72 2.54  94 2.54 119 2.58 118 2.59  70 2.69  51 2.69 120 2.72 121 2.72
                            95 2.87 123 3.00
  76  0.604  0.201  0.004-  77 2.56  72 2.59 102 2.60 119 2.60  80 2.61  51 2.62  52 2.64 121 2.68

  77  0.600  0.201  0.199-  78 2.55  76 2.56  53 2.59  47 2.60  81 2.61 103 2.62  73 2.62  99 2.66

  78  0.601  0.201  0.396-  79 2.50  77 2.55  54 2.59  48 2.60  74 2.62 100 2.63  82 2.64 104 2.64
                           122 3.00
  79  0.575  0.198  0.577-  78 2.50  83 2.50  49 2.51  55 2.51  54 2.71 121 2.74 120 2.74 124 2.81
                           122 2.81
  80  0.602  0.400  0.000-  81 2.58  84 2.60 106 2.60  76 2.61  85 2.62  57 2.63  56 2.64 101 2.67
                           121 2.99
  81  0.600  0.402  0.199-  82 2.57  80 2.58  86 2.59  52 2.59  58 2.60 107 2.60 102 2.61  77 2.61

  82  0.603  0.405  0.398-  81 2.57  87 2.57 108 2.61 103 2.61  83 2.64  78 2.64  53 2.64  59 2.64

  83  0.601  0.406  0.601-  79 2.50  88 2.55  54 2.59  60 2.60  84 2.62 109 2.63  82 2.64 104 2.64
                           124 3.00
  84  0.594  0.407  0.801-  61 2.49  89 2.52  80 2.60  83 2.62 105 2.64 121 2.66 124 2.69  55 2.76
                            85 2.91
  85  0.603  0.603  0.002-  86 2.58  62 2.59  90 2.59  89 2.60  61 2.61 105 2.61  80 2.62 111 2.62
                            84 2.91
  86  0.602  0.602  0.200-  85 2.58  91 2.58  87 2.59  81 2.59  57 2.60  63 2.60 112 2.60 106 2.60

  87  0.600  0.602  0.399-  82 2.57  92 2.58  86 2.59  64 2.59  58 2.60 107 2.60 113 2.61  88 2.61

  88  0.600  0.601  0.599-  83 2.55  93 2.56  59 2.59  65 2.60  87 2.61  89 2.62 108 2.62 114 2.66

  89  0.602  0.604  0.802-  84 2.52  94 2.56 109 2.59  66 2.60 110 2.60  85 2.60  88 2.62  60 2.65

  90  0.603  0.802  0.001-  94 2.59  72 2.59  91 2.59  85 2.59  96 2.60 110 2.60  66 2.60  67 2.60

  91  0.603  0.801  0.200-  86 2.58  62 2.59  90 2.59  73 2.60  68 2.61  97 2.61  92 2.62 111 2.62
                            74 2.91
  92  0.602  0.802  0.402-  87 2.58  74 2.60 112 2.60  93 2.61  91 2.62  63 2.63  69 2.64  98 2.67
                           120 2.99
  93  0.604  0.801  0.603-  88 2.56  94 2.59 113 2.60 118 2.60  92 2.61  70 2.62  64 2.64 120 2.68

  94  0.600  0.800  0.801-  75 2.54  89 2.56  90 2.59  93 2.59  71 2.59 114 2.60  65 2.60  95 2.63
                           118 3.00
  95  0.803  0.004  0.999- 118 2.50 119 2.50   6 2.61   1 2.61  94 2.63  72 2.63  96 2.64 110 2.64
                            75 2.87 115 2.94
  96  0.803  0.001  0.201-   2 2.53   7 2.58 111 2.59  97 2.60  90 2.60  73 2.60  99 2.62  95 2.64

  97  0.804  0.002  0.401- 112 2.57   8 2.58  96 2.60 100 2.61  91 2.61  74 2.64  98 2.68   3 2.71
                           122 3.00
  98  0.811  0.001  0.609- 113 2.53   4 2.56 116 2.58 118 2.58  92 2.67  97 2.68 122 2.70 120 2.72
                             5 2.88 123 3.00
  99  0.804  0.201  0.195- 119 2.43 100 2.60  72 2.60   6 2.60 102 2.61  10 2.62  96 2.62  77 2.66

 100  0.804  0.201  0.395-   7 2.58  73 2.59  99 2.60 103 2.61  11 2.61  97 2.61  78 2.63 122 2.66

 101  0.811  0.402  0.010- 102 2.53  14 2.56 117 2.58 119 2.58  80 2.67 105 2.68 124 2.70 121 2.72
                             9 2.88 123 3.00
 102  0.803  0.403  0.202- 101 2.53 103 2.56  15 2.59  76 2.60 106 2.60  81 2.61  99 2.61   9 2.63
                           119 2.99
 103  0.803  0.402  0.399- 104 2.52 102 2.56 107 2.59  10 2.60 100 2.61  16 2.61  82 2.61  77 2.62

 104  0.803  0.409  0.594- 103 2.52 108 2.52  17 2.60  11 2.60  78 2.64  83 2.64 124 2.70 122 2.70
                            16 2.91
 105  0.804  0.603  0.003- 106 2.57  13 2.58 110 2.60 109 2.61  85 2.61  84 2.64 101 2.68  18 2.71
                           124 3.00
 106  0.802  0.602  0.199-  19 2.55 105 2.57 111 2.59  14 2.59 102 2.60  80 2.60  86 2.60 107 2.62

 107  0.801  0.601  0.400- 108 2.59 103 2.59  81 2.60  87 2.60 106 2.62 112 2.62  20 2.63  15 2.63
                            19 2.90
 108  0.803  0.605  0.601- 104 2.52 113 2.56 107 2.59  21 2.60 109 2.61  16 2.61  82 2.61  88 2.62

 109  0.804  0.609  0.803-  24 2.58  89 2.59 114 2.60 108 2.61  17 2.61 105 2.61  83 2.63 124 2.66

 110  0.803  0.803  0.002-   2 2.53  24 2.58 111 2.59 105 2.60  90 2.60  89 2.60 114 2.62  95 2.64

 111  0.806  0.803  0.203- 112 2.58 106 2.59  96 2.59 110 2.59   3 2.61  18 2.61  91 2.62  85 2.62

 112  0.802  0.803  0.400-  19 2.55  97 2.57 111 2.58   4 2.59 113 2.60  92 2.60  86 2.60 107 2.62

 113  0.803  0.801  0.600-  98 2.53 108 2.56  20 2.59  93 2.60 112 2.60 114 2.61  87 2.61   5 2.63
                           118 2.99
 114  0.804  0.809  0.803- 118 2.43 109 2.60  94 2.60   1 2.60 113 2.61  21 2.62 110 2.62  88 2.66

 115  0.005  0.201  0.005-  33 2.54  27 2.54   6 2.54   1 2.54 118 2.61 119 2.61 116 2.62 117 2.62
                           123 2.78  95 2.94   5 2.95   9 2.95  32 2.95  28 3.00
 116  0.010  0.201  0.805-  31 2.43   5 2.51  32 2.51 123 2.53  98 2.58  12 2.58 115 2.62   8 2.62
                            27 2.94  36 2.99   4 3.01 118 3.05 117 3.06 122 3.16
 117  0.010  0.405  0.009-  38 2.43   9 2.51  32 2.51 123 2.53 101 2.58  12 2.58  13 2.62 115 2.62
                            33 2.94  37 2.99  14 3.01 119 3.05 116 3.06 124 3.16
 118  0.806  0.998  0.805- 114 2.43  95 2.50   5 2.52 123 2.52  98 2.58  75 2.59  93 2.60 115 2.61
                             1 2.95 113 2.99  94 3.00 116 3.05 119 3.05 120 3.17
 119  0.806  0.201  0.009-  99 2.43  95 2.50   9 2.52 123 2.52 101 2.58  75 2.58  76 2.60 115 2.61
                             6 2.95 102 2.99  72 3.00 117 3.05 118 3.05 121 3.17
 120  0.598  0.002  0.596-  50 2.64  69 2.66  74 2.66  93 2.68  98 2.72  75 2.72  79 2.74 123 2.81
                           122 2.97  92 2.99 121 3.00  70 3.01 118 3.17
 121  0.598  0.202  0.796-  50 2.64  56 2.66  84 2.66  76 2.68 101 2.72  75 2.72  79 2.74 123 2.81
                           124 2.97  80 2.99 120 3.00  51 3.01 119 3.17
 122  0.798  0.200  0.597- 100 2.66   8 2.67  74 2.69 104 2.70  98 2.70  12 2.70  79 2.81 123 2.81
                           120 2.97  78 3.00  11 3.00  97 3.00 124 3.00 116 3.16
 123  0.821  0.201  0.820- 119 2.52 118 2.52 117 2.53 116 2.53 115 2.78 124 2.81 122 2.81 120 2.81
                           121 2.81  75 3.00  12 3.00 101 3.00  98 3.00
 124  0.798  0.401  0.798- 109 2.66  13 2.67  84 2.69 104 2.70 101 2.70  12 2.70  79 2.81 123 2.81
                           121 2.97  83 3.00  17 3.00 105 3.00 122 3.00 117 3.16
 
  LATTYP: Found a base centered monoclinic cell.
 ALAT       =    15.0482117230
 B/A-ratio  =     1.4081981607
 C/A-ratio  =     1.6569313785
 COS(beta)  =    -0.9052205732
  
  Lattice vectors:
  
 A1 = (   4.3071057600,   6.1309426610, -10.6177469370)
 A2 = ( -12.9951470410,   0.0135483230,  -0.0223585750)
 A3 = (  13.0316404910,  -0.0404660660,  21.2572762500)


Analysis of symmetry for initial positions (statically):
=====================================================================
 Subroutine PRICEL returns:
 Original cell was already a primitive cell.
 

 Routine SETGRP: Setting up the symmetry group for a 
 base centered monoclinic supercell.


 Subroutine GETGRP returns: Found  1 space group operations
 (whereof  1 operations were pure point group operations)
 out of a pool of  4 trial point group operations.


The static configuration has the point symmetry C_1 .


Analysis of symmetry for dynamics (positions and initial velocities):
=====================================================================
 Subroutine PRICEL returns:
 Original cell was already a primitive cell.
 

 Routine SETGRP: Setting up the symmetry group for a 
 base centered monoclinic supercell.


 Subroutine GETGRP returns: Found  1 space group operations
 (whereof  1 operations were pure point group operations)
 out of a pool of  4 trial point group operations.


The dynamic configuration has the point symmetry C_1 .


 Subroutine INISYM returns: Found  1 space group operations
 (whereof  1 operations are pure point group operations),
 and found     1 'primitive' translations


----------------------------------------------------------------------------------------

                                     Primitive cell                                     

  volume of cell :    1689.3617

  direct lattice vectors                    reciprocal lattice vectors
    12.995147041 -0.013548323  0.022358575     0.076899476  0.027363571  0.046994778
    -4.344442071 12.248515902 -0.022934774     0.000004010  0.081732338  0.047195846
    -4.307105760 -6.130942661 10.617746937    -0.000161924  0.000118924  0.094184924

  length of vectors
    12.995173338 12.996185776 12.995236356     0.094184943  0.094380205  0.094185138

  position of ions in fractional coordinates (direct lattice)
     0.006099678  0.005141741  0.004659326
     0.995808270  0.001467121  0.194695483
     0.011871747  0.001129902  0.399921989
     0.003825921  0.000102499  0.598836726
     0.001577958  0.004664009  0.803916475
     0.006107078  0.201822974  0.201331057
     0.002934933  0.199321146  0.398926984
     0.003749720  0.199003168  0.601102126
     0.001577430  0.398050618  0.197302115
     0.003103176  0.401605323  0.399664013
     0.001692461  0.399630537  0.600380442
     0.008908402  0.400461634  0.808864194
     0.003750762  0.603030192  0.005122226
     0.003830400  0.605379801  0.204104375
     0.003508364  0.601481421  0.400719326
     0.003134185  0.602465649  0.601049109
     0.001677521  0.601695897  0.802435988
     0.011865882  0.812315219  0.211116819
     0.995359325  0.794808958  0.400948899
     0.003487426  0.803170716  0.602395461
     0.003079805  0.803816078  0.801865643
     0.200898722  0.000990696  0.001134036
     0.199412152  0.000677411  0.208817085
     0.002946634  0.804387969  0.003999208
     0.198723627  0.000374196  0.593646227
     0.200594244  0.001289576  0.801496271
     0.200711969  0.200862685  0.004526300
     0.203348117  0.199661868  0.204046361
     0.199409499  0.190967373  0.399096089
     0.199788795  0.207309415  0.605462500
     0.196146491  0.200651398  0.802999581
     0.197710829  0.397671692  0.000394620
     0.200707648  0.396560580  0.200208905
     0.200915471  0.400149521  0.400280321
     0.200197163  0.401321122  0.598096576
     0.202988939  0.404288047  0.802233634
     0.203010877  0.601137738  0.999082472
     0.196148353  0.593519541  0.195856678
     0.200618690  0.599483269  0.399681165
     0.201569529  0.601005031  0.600418068
     0.200827749  0.601118369  0.800101598
     0.200198746  0.802476285  0.999267407
     0.199790410  0.794717148  0.192865741
     0.198728769  0.805453475  0.398716378
     0.200775189  0.801312743  0.599842784
     0.201541624  0.801521677  0.800938898
     0.399497016  0.000456393  0.999123293
     0.398185713  0.999750216  0.198552122
     0.383905327  0.995169202  0.392405322
     0.392775308  0.994165742  0.598993281
     0.400645124  0.002376250  0.800509439
     0.399754326  0.201036042  0.000828121
     0.399848803  0.200009126  0.197628285
     0.405167454  0.208078254  0.397477288
     0.383916903  0.191894469  0.589120014
     0.393679427  0.200068626  0.799788926
     0.400649539  0.401695832  0.001723986
     0.400663992  0.400959854  0.200069531
     0.399852862  0.402605811  0.400215183
     0.398180159  0.400009183  0.598804192
     0.401335494  0.402007228  0.801539790
     0.402577692  0.601654058  0.001266534
     0.400645863  0.599285523  0.199310326
     0.399756399  0.599299242  0.399080599
     0.399519016  0.600776856  0.599425287
     0.401243813  0.602069281  0.801180056
     0.401253281  0.800425317  0.999542199
     0.401350827  0.800160412  0.199698474
     0.393689266  0.794271642  0.393972858
     0.400650886  0.800529758  0.598650733
     0.400826524  0.801552060  0.799649074
     0.599730989  0.999492877  0.000397826
     0.601973119  0.000177118  0.198506784
     0.594042850  0.993844638  0.387172691
     0.609470395  0.001216805  0.808649996
     0.603998337  0.201031459  0.003753722
     0.600089225  0.201173112  0.199178482
     0.601214686  0.200567072  0.395623260
     0.574587748  0.197961258  0.576995597
     0.601650269  0.400098922  0.000224543
     0.600224851  0.401698069  0.198629021
     0.602917272  0.404851372  0.398442799
     0.601213086  0.405981428  0.601032296
     0.594044491  0.407241800  0.800571728
     0.602640982  0.602530861  0.002130840
     0.601821210  0.601781131  0.200401824
     0.600212573  0.601961209  0.398897805
     0.600102860  0.601301817  0.599308244
     0.601964873  0.603828889  0.802149425
     0.602635586  0.801806850  0.001175879
     0.602647696  0.800866579  0.200470341
     0.601649124  0.801790784  0.401927725
     0.603991702  0.800641513  0.603347224
     0.599752429  0.799725129  0.800619186
     0.803135779  0.004484167  0.999033304
     0.803243703  0.001167889  0.200997200
     0.804209898  0.002005242  0.401423676
     0.810644832  0.001373546  0.609209908
     0.803574870  0.200925065  0.195039625
     0.803786371  0.200716363  0.395066099
     0.810646253  0.401844548  0.009671668
     0.802537214  0.403418811  0.202342243
     0.803356623  0.402377679  0.398892209
     0.802761056  0.408692280  0.594433519
     0.804199773  0.603161020  0.002585539
     0.801860602  0.602030032  0.198980911
     0.800581271  0.601229461  0.399738215
     0.803356691  0.604847788  0.601364882
     0.803782831  0.609096490  0.803447106
     0.803246519  0.802614575  0.002445748
     0.805715455  0.803438590  0.202669365
     0.801861643  0.803260500  0.400213354
     0.802529745  0.800590838  0.599502699
     0.803582529  0.808920300  0.803032460
     0.005345546  0.200747870  0.004979831
     0.009828440  0.201011057  0.805155787
     0.009832136  0.405068262  0.009204431
     0.805987428  0.997589039  0.805103832
     0.805980843  0.201274062  0.008796178
     0.597835284  0.002185957  0.596152218
     0.597837104  0.202072908  0.796039665
     0.797608557  0.200350365  0.597185226
     0.820563575  0.200772698  0.820200189
     0.797610157  0.400802287  0.797630508

  ion indices of the primitive-cell ions
   primitive index   ion index
                 1           1
                 2           2
                 3           3
                 4           4
                 5           5
                 6           6
                 7           7
                 8           8
                 9           9
                10          10
                11          11
                12          12
                13          13
                14          14
                15          15
                16          16
                17          17
                18          18
                19          19
                20          20
                21          21
                22          22
                23          23
                24          24
                25          25
                26          26
                27          27
                28          28
                29          29
                30          30
                31          31
                32          32
                33          33
                34          34
                35          35
                36          36
                37          37
                38          38
                39          39
                40          40
                41          41
                42          42
                43          43
                44          44
                45          45
                46          46
                47          47
                48          48
                49          49
                50          50
                51          51
                52          52
                53          53
                54          54
                55          55
                56          56
                57          57
                58          58
                59          59
                60          60
                61          61
                62          62
                63          63
                64          64
                65          65
                66          66
                67          67
                68          68
                69          69
                70          70
                71          71
                72          72
                73          73
                74          74
                75          75
                76          76
                77          77
                78          78
                79          79
                80          80
                81          81
                82          82
                83          83
                84          84
                85          85
                86          86
                87          87
                88          88
                89          89
                90          90
                91          91
                92          92
                93          93
                94          94
                95          95
                96          96
                97          97
                98          98
                99          99
               100         100
               101         101
               102         102
               103         103
               104         104
               105         105
               106         106
               107         107
               108         108
               109         109
               110         110
               111         111
               112         112
               113         113
               114         114
               115         115
               116         116
               117         117
               118         118
               119         119
               120         120
               121         121
               122         122
               123         123
               124         124

----------------------------------------------------------------------------------------

 
 
 KPOINTS: KPOINTS created by Atomic Simulation Env

Automatic generation of k-mesh.
 Grid dimensions read from file:
 generate k-points for:    4    4    4

 Generating k-lattice:

  Cartesian coordinates                     Fractional coordinates (reciprocal lattice)
     0.019224869  0.006840893  0.011748694     0.250000000 -0.000000000 -0.000000000
     0.000001002  0.020433085  0.011798961     0.000000000  0.250000000  0.000000000
    -0.000040481  0.000029731  0.023546231     0.000000000  0.000000000  0.250000000

  Length of vectors
     0.023546236  0.023595051  0.023546285

  Shift w.r.t. Gamma in fractional coordinates (k-lattice)
     0.000000000  0.000000000  0.000000000

 
 Subroutine IBZKPT returns following result:
 ===========================================
 
 Found     36 irreducible k-points:
 
 Following reciprocal coordinates:
            Coordinates               Weight
  0.000000  0.000000  0.000000      1.000000
  0.250000  0.000000  0.000000      2.000000
  0.000000  0.000000 -0.250000      2.000000
  0.500000  0.000000  0.000000      1.000000
  0.000000  0.000000  0.500000      1.000000
  0.000000  0.250000  0.000000      2.000000
  0.250000  0.250000  0.000000      2.000000
  0.000000 -0.250000 -0.250000      2.000000
  0.500000  0.250000  0.000000      2.000000
  0.000000 -0.250000  0.500000      2.000000
 -0.250000  0.250000  0.000000      2.000000
  0.000000 -0.250000  0.250000      2.000000
  0.000000  0.500000  0.000000      1.000000
  0.250000  0.500000  0.000000      2.000000
  0.000000  0.500000 -0.250000      2.000000
  0.500000  0.500000  0.000000      1.000000
  0.000000  0.500000  0.500000      1.000000
  0.250000  0.000000  0.250000      2.000000
  0.500000  0.000000  0.250000      2.000000
 -0.250000  0.000000  0.500000      2.000000
 -0.250000  0.000000  0.250000      2.000000
  0.250000  0.250000  0.250000      2.000000
  0.500000  0.250000  0.250000      2.000000
 -0.250000 -0.250000  0.500000      2.000000
 -0.250000  0.250000  0.250000      2.000000
 -0.250000 -0.250000  0.250000      2.000000
  0.250000  0.500000  0.250000      2.000000
  0.500000  0.500000  0.250000      2.000000
 -0.250000  0.500000  0.500000      2.000000
 -0.250000  0.500000  0.250000      2.000000
  0.250000 -0.250000  0.250000      2.000000
  0.500000 -0.250000  0.250000      2.000000
 -0.250000  0.250000  0.500000      2.000000
  0.500000  0.000000  0.500000      1.000000
  0.500000  0.250000  0.500000      2.000000
  0.500000  0.500000  0.500000      1.000000
 
 Following cartesian coordinates:
            Coordinates               Weight
  0.000000  0.000000  0.000000      1.000000
  0.019225  0.006841  0.011749      2.000000
  0.000040 -0.000030 -0.023546      2.000000
  0.038450  0.013682  0.023497      1.000000
 -0.000081  0.000059  0.047092      1.000000
  0.000001  0.020433  0.011799      2.000000
  0.019226  0.027274  0.023548      2.000000
  0.000039 -0.020463 -0.035345      2.000000
  0.038451  0.034115  0.035296      2.000000
 -0.000082 -0.020374  0.035294      2.000000
 -0.019224  0.013592  0.000050      2.000000
 -0.000041 -0.020403  0.011747      2.000000
  0.000002  0.040866  0.023598      1.000000
  0.019227  0.047707  0.035347      2.000000
  0.000042  0.040836  0.000052      2.000000
  0.038452  0.054548  0.047095      1.000000
 -0.000079  0.040926  0.070690      1.000000
  0.019184  0.006871  0.035295      2.000000
  0.038409  0.013712  0.047044      2.000000
 -0.019306 -0.006781  0.035344      2.000000
 -0.019265 -0.006811  0.011798      2.000000
  0.019185  0.027304  0.047094      2.000000
  0.038410  0.034145  0.058843      2.000000
 -0.019307 -0.027215  0.023545      2.000000
 -0.019264  0.013622  0.023596      2.000000
 -0.019266 -0.027244 -0.000001      2.000000
  0.019186  0.047737  0.058893      2.000000
  0.038411  0.054578  0.070642      2.000000
 -0.019304  0.034085  0.058942      2.000000
 -0.019263  0.034055  0.035395      2.000000
  0.019183 -0.013562  0.023496      2.000000
  0.038408 -0.006722  0.035245      2.000000
 -0.019305  0.013652  0.047143      2.000000
  0.038369  0.013741  0.070590      1.000000
  0.038370  0.034174  0.082389      2.000000
  0.038371  0.054607  0.094188      1.000000
 


--------------------------------------------------------------------------------------------------------




 Dimension of arrays:
   k-points           NKPTS =     36   k-points in BZ     NKDIM =     36   number of bands    NBANDS=    820
   number of dos      NEDOS =    301   number of ions     NIONS =    124
   non local maximal  LDIM  =      6   non local SUM 2l+1 LMDIM =     18
   total plane-waves  NPLWV = 941192
   max r-space proj   IRMAX =      1   max aug-charges    IRDMAX=  21827
   dimension x,y,z NGX =    98 NGY =   98 NGZ =   98
   dimension x,y,z NGXF=   196 NGYF=  196 NGZF=  196
   support grid    NGXF=   196 NGYF=  196 NGZF=  196
   ions per type =             114   5   5
   NGX,Y,Z   is equivalent  to a cutoff of  12.54, 12.54, 12.54 a.u.
   NGXF,Y,Z  is equivalent  to a cutoff of  25.07, 25.07, 25.07 a.u.

 SYSTEM =  unknown system                          
 POSCAR =  V  Cr Ti                                

 Startparameter for this run:
   NWRITE =      2    write-flag & timer
   PREC   = accura    normal or accurate (medium, high low for compatibility)
   ISTART =      0    job   : 0-new  1-cont  2-samecut
   ICHARG =      2    charge: 1-file 2-atom 10-const
   ISPIN  =      1    spin polarized calculation?
   LNONCOLLINEAR =      F non collinear calculations
   LSORBIT =      F    spin-orbit coupling
   INIWAV =      1    electr: 0-lowe 1-rand  2-diag
   LASPH  =      F    aspherical Exc in radial PAW
 Electronic Relaxation 1
   ENCUT  =  520.0 eV  38.22 Ry    6.18 a.u.  24.16 24.16 24.16*2*pi/ulx,y,z
   ENINI  =  520.0     initial cutoff
   ENAUG  =  598.5 eV  augmentation charge cutoff
   NELM   =    100;   NELMIN=  2; NELMDL= -5     # of ELM steps 
   EDIFF  = 0.1E-05   stopping-criterion for ELM
   LREAL  =      F    real-space projection
   NLSPLINE    = F    spline interpolate recip. space projectors
   LCOMPAT=      F    compatible to vasp.4.4
   GGA_COMPAT  = T    GGA compatible to vasp.4.4-vasp.4.6
   LMAXPAW     = -100 max onsite density
   LMAXMIX     =    2 max onsite mixed and CHGCAR
   VOSKOWN=      0    Vosko Wilk Nusair interpolation
   ROPT   =    0.00000   0.00000   0.00000
 Ionic relaxation
   EDIFFG = -.1E-01   stopping-criterion for IOM
   NSW    =     -1    number of steps for IOM
   NBLOCK =      1;   KBLOCK =      1    inner block; outer block 
   IBRION =      2    ionic relax: 0-MD 1-quasi-New 2-CG
   NFREE  =      1    steps in history (QN), initial steepest desc. (CG)
   ISIF   =      2    stress and relaxation
   IWAVPR =     11    prediction:  0-non 1-charg 2-wave 3-comb
   ISYM   =      2    0-nonsym 1-usesym 2-fastsym
   LCORR  =      T    Harris-Foulkes like correction to forces

   POTIM  = 0.2000    time-step for ionic-motion
   TEIN   =    0.0    initial temperature
   TEBEG  =    0.0;   TEEND  =   0.0 temperature during run
   SMASS  =  -3.00    Nose mass-parameter (am)
   estimated Nose-frequenzy (Omega)   =  0.10E-29 period in steps = 0.31E+47 mass=  -0.386E-26a.u.
   SCALEE = 1.0000    scale energy and forces
   NPACO  =    256;   APACO  = 10.0  distance and # of slots for P.C.
   PSTRESS=    0.0 pullay stress

  Mass of Ions in am
   POMASS =  50.94 52.00 47.88
  Ionic Valenz
   ZVAL   =  11.00 12.00 10.00
  Atomic Wigner-Seitz radii
   RWIGS  =  -1.00 -1.00 -1.00
  virtual crystal weights 
   VCA    =   1.00  1.00  1.00
   NELECT =    1364.0000    total number of electrons
   NUPDOWN=      -1.0000    fix difference up-down

 DOS related values:
   EMIN   =  10.00;   EMAX   =-10.00  energy-range for DOS
   EFERMI =   0.00;   METHOD = LEGACY      
   ISMEAR =     1;   SIGMA  =   0.20  broadening in eV -4-tet -1-fermi 0-gaus

 Electronic relaxation 2 (details)
   IALGO  =     38    algorithm
   LDIAG  =      T    sub-space diagonalisation (order eigenvalues)
   LSUBROT=      F    optimize rotation matrix (better conditioning)
   TURBO    =      0    0=normal 1=particle mesh
   IRESTART =      0    0=no restart 2=restart with 2 vectors
   NREBOOT  =      0    no. of reboots
   NMIN     =      0    reboot dimension
   EREF     =   0.00    reference energy to select bands
   IMIX   =      4    mixing-type and parameters
     AMIX     =   0.40;   BMIX     =  1.00
     AMIX_MAG =   1.60;   BMIX_MAG =  1.00
     AMIN     =   0.10
     WC   =   100.;   INIMIX=   1;  MIXPRE=   1;  MAXMIX= -45

 Intra band minimization:
   WEIMIN = 0.0010     energy-eigenvalue tresh-hold
   EBREAK =  0.30E-09  absolut break condition
   DEPER  =   0.30     relativ break condition  

   TIME   =   0.40     timestep for ELM

  volume/ion in A,a.u.               =      13.62        91.94
  Fermi-wavevector in a.u.,A,eV,Ry     =   1.524423  2.880741 31.618097  2.323865
  Thomas-Fermi vector in A             =   2.632732
 
 Write flags
   LWAVE        =      F    write WAVECAR
   LDOWNSAMPLE  =      F    k-point downsampling of WAVECAR
   LCHARG       =      T    write CHGCAR
   LVTOT        =      F    write LOCPOT, total local potential
   LVHAR        =      F    write LOCPOT, Hartree potential only
   LELF         =      F    write electronic localiz. function (ELF)
   LORBIT       =     11    0 simple, 1 ext, 2 COOP (PROOUT), +10 PAW based schemes


 Dipole corrections
   LMONO  =      F    monopole corrections only (constant potential shift)
   LDIPOL =      F    correct potential (dipole corrections)
   IDIPOL =      0    1-x, 2-y, 3-z, 4-all directions 
   EPSILON=  1.0000000 bulk dielectric constant

 Exchange correlation treatment:
   GGA     =    PE    GGA type
   LEXCH   =     8    internal setting for exchange type
   LIBXC   =     F    Libxc                    
   VOSKOWN =     0    Vosko Wilk Nusair interpolation
   LHFCALC =     F    Hartree Fock is set to
   LHFONE  =     F    Hartree Fock one center treatment
   AEXX    =    0.0000 exact exchange contribution

 Linear response parameters
   LEPSILON=     F    determine dielectric tensor
   LRPA    =     F    only Hartree local field effects (RPA)
   LNABLA  =     F    use nabla operator in PAW spheres
   LVEL    =     F    velocity operator in full k-point grid
   CSHIFT  =0.1000    complex shift for real part using Kramers Kronig
   OMEGAMAX=  -1.0    maximum frequency
   DEG_THRESHOLD= 0.2000000E-02 threshold for treating states as degnerate
   RTIME   =   -0.100 relaxation time in fs
  (WPLASMAI=    0.000 imaginary part of plasma frequency in eV, 0.658/RTIME)
   DFIELD  = 0.0000000 0.0000000 0.0000000 field for delta impulse in time
 
  Optional k-point grid parameters
   LKPOINTS_OPT  =     F    use optional k-point grid
   KPOINTS_OPT_MODE=     1    mode for optional k-point grid
 
 Orbital magnetization related:
   ORBITALMAG=     F  switch on orbital magnetization
   LCHIMAG   =     F  perturbation theory with respect to B field
   DQ        =  0.001000  dq finite difference perturbation B field
   LLRAUG    =     F  two centre corrections for induced B field
   LBONE     =     F  B-component reconstruction in AE one-centre
   LVGVCALC  =     T  calculate vGv susceptibility
   LVGVAPPL  =     F  apply vGv susceptibility instead of pGv for G=0

 Random number generation:
   RANDOM_GENERATOR = DEFAULT
   PCG_SEED         = not used


--------------------------------------------------------------------------------------------------------


 conjugate gradient relaxation of ions
 charge density and potential will be updated during run
 non-spin polarized calculation
 Variant of blocked Davidson
 Davidson routine will perform the subspace rotation
 perform sub-space diagonalisation
    after iterative eigenvector-optimisation
 modified Broyden-mixing scheme, WC =      100.0
 initial mixing is a Kerker type mixing with AMIX =  0.4000 and BMIX =      1.0000
 Hartree-type preconditioning will be used
 using additional bands           138
 reciprocal scheme for non local part
 use partial core corrections
 calculate Harris-corrections to forces 
   (improved forces if not selfconsistent)
 use gradient corrections 
 use of overlap-Matrix (Vanderbilt PP)
 Methfessel and Paxton  Order N= 1 SIGMA  =   0.20


--------------------------------------------------------------------------------------------------------


  energy-cutoff  :      520.00
  volume of cell :     1689.36
      direct lattice vectors                 reciprocal lattice vectors
    12.995147041 -0.013548323  0.022358575     0.076899476  0.027363571  0.046994778
    -4.344442071 12.248515902 -0.022934774     0.000004010  0.081732338  0.047195846
    -4.307105760 -6.130942661 10.617746937    -0.000161924  0.000118924  0.094184924

  length of vectors
    12.995173338 12.996185776 12.995236356     0.094184943  0.094380205  0.094185138


 
 k-points in units of 2pi/SCALE and weight: KPOINTS created by Atomic Simulation Env
   0.00000000  0.00000000  0.00000000       0.016
   0.01922487  0.00684089  0.01174869       0.031
   0.00004048 -0.00002973 -0.02354623       0.031
   0.03844974  0.01368179  0.02349739       0.016
  -0.00008096  0.00005946  0.04709246       0.016
   0.00000100  0.02043308  0.01179896       0.031
   0.01922587  0.02727398  0.02354766       0.031
   0.00003948 -0.02046282 -0.03534519       0.031
   0.03845074  0.03411487  0.03529635       0.031
  -0.00008196 -0.02037362  0.03529350       0.031
  -0.01922387  0.01359219  0.00005027       0.031
  -0.00004148 -0.02040335  0.01174727       0.031
   0.00000200  0.04086617  0.02359792       0.016
   0.01922687  0.04770706  0.03534662       0.031
   0.00004249  0.04083644  0.00005169       0.031
   0.03845174  0.05454795  0.04709531       0.016
  -0.00007896  0.04092563  0.07069039       0.016
   0.01918439  0.00687062  0.03529493       0.031
   0.03840926  0.01371152  0.04704362       0.031
  -0.01930583 -0.00678143  0.03534377       0.031
  -0.01926535 -0.00681116  0.01179754       0.031
   0.01918539  0.02730371  0.04709389       0.031
   0.03841026  0.03414460  0.05884258       0.031
  -0.01930683 -0.02721452  0.02354481       0.031
  -0.01926435  0.01362192  0.02359650       0.031
  -0.01926635 -0.02724425 -0.00000142       0.031
   0.01918639  0.04773679  0.05889285       0.031
   0.03841126  0.05457769  0.07064154       0.031
  -0.01930383  0.03408474  0.05894169       0.031
  -0.01926335  0.03405501  0.03539546       0.031
   0.01918339 -0.01356246  0.02349596       0.031
   0.03840825 -0.00672157  0.03524466       0.031
  -0.01930483  0.01365165  0.04714273       0.031
   0.03836878  0.01374125  0.07058985       0.016
   0.03836978  0.03417433  0.08238881       0.031
   0.03837078  0.05460742  0.09418777       0.016
 
 k-points in reciprocal lattice and weights: KPOINTS created by Atomic Simulation Env
   0.00000000  0.00000000  0.00000000       0.016
   0.25000000  0.00000000  0.00000000       0.031
   0.00000000  0.00000000 -0.25000000       0.031
   0.50000000  0.00000000  0.00000000       0.016
   0.00000000  0.00000000  0.50000000       0.016
   0.00000000  0.25000000  0.00000000       0.031
   0.25000000  0.25000000  0.00000000       0.031
   0.00000000 -0.25000000 -0.25000000       0.031
   0.50000000  0.25000000  0.00000000       0.031
   0.00000000 -0.25000000  0.50000000       0.031
  -0.25000000  0.25000000  0.00000000       0.031
   0.00000000 -0.25000000  0.25000000       0.031
   0.00000000  0.50000000  0.00000000       0.016
   0.25000000  0.50000000  0.00000000       0.031
   0.00000000  0.50000000 -0.25000000       0.031
   0.50000000  0.50000000  0.00000000       0.016
   0.00000000  0.50000000  0.50000000       0.016
   0.25000000  0.00000000  0.25000000       0.031
   0.50000000  0.00000000  0.25000000       0.031
  -0.25000000  0.00000000  0.50000000       0.031
  -0.25000000  0.00000000  0.25000000       0.031
   0.25000000  0.25000000  0.25000000       0.031
   0.50000000  0.25000000  0.25000000       0.031
  -0.25000000 -0.25000000  0.50000000       0.031
  -0.25000000  0.25000000  0.25000000       0.031
  -0.25000000 -0.25000000  0.25000000       0.031
   0.25000000  0.50000000  0.25000000       0.031
   0.50000000  0.50000000  0.25000000       0.031
  -0.25000000  0.50000000  0.50000000       0.031
  -0.25000000  0.50000000  0.25000000       0.031
   0.25000000 -0.25000000  0.25000000       0.031
   0.50000000 -0.25000000  0.25000000       0.031
  -0.25000000  0.25000000  0.50000000       0.031
   0.50000000  0.00000000  0.50000000       0.016
   0.50000000  0.25000000  0.50000000       0.031
   0.50000000  0.50000000  0.50000000       0.016
 
 position of ions in fractional coordinates (direct lattice) 
   0.00609968  0.00514174  0.00465933
   0.99580827  0.00146712  0.19469548
   0.01187175  0.00112990  0.39992199
   0.00382592  0.00010250  0.59883673
   0.00157796  0.00466401  0.80391647
   0.00610708  0.20182297  0.20133106
   0.00293493  0.19932115  0.39892698
   0.00374972  0.19900317  0.60110213
   0.00157743  0.39805062  0.19730212
   0.00310318  0.40160532  0.39966401
   0.00169246  0.39963054  0.60038044
   0.00890840  0.40046163  0.80886419
   0.00375076  0.60303019  0.00512223
   0.00383040  0.60537980  0.20410438
   0.00350836  0.60148142  0.40071933
   0.00313418  0.60246565  0.60104911
   0.00167752  0.60169590  0.80243599
   0.01186588  0.81231522  0.21111682
   0.99535933  0.79480896  0.40094890
   0.00348743  0.80317072  0.60239546
   0.00307980  0.80381608  0.80186564
   0.20089872  0.00099070  0.00113404
   0.19941215  0.00067741  0.20881709
   0.00294663  0.80438797  0.00399921
   0.19872363  0.00037420  0.59364623
   0.20059424  0.00128958  0.80149627
   0.20071197  0.20086269  0.00452630
   0.20334812  0.19966187  0.20404636
   0.19940950  0.19096737  0.39909609
   0.19978879  0.20730942  0.60546250
   0.19614649  0.20065140  0.80299958
   0.19771083  0.39767169  0.00039462
   0.20070765  0.39656058  0.20020891
   0.20091547  0.40014952  0.40028032
   0.20019716  0.40132112  0.59809658
   0.20298894  0.40428805  0.80223363
   0.20301088  0.60113774  0.99908247
   0.19614835  0.59351954  0.19585668
   0.20061869  0.59948327  0.39968116
   0.20156953  0.60100503  0.60041807
   0.20082775  0.60111837  0.80010160
   0.20019875  0.80247628  0.99926741
   0.19979041  0.79471715  0.19286574
   0.19872877  0.80545347  0.39871638
   0.20077519  0.80131274  0.59984278
   0.20154162  0.80152168  0.80093890
   0.39949702  0.00045639  0.99912329
   0.39818571  0.99975022  0.19855212
   0.38390533  0.99516920  0.39240532
   0.39277531  0.99416574  0.59899328
   0.40064512  0.00237625  0.80050944
   0.39975433  0.20103604  0.00082812
   0.39984880  0.20000913  0.19762828
   0.40516745  0.20807825  0.39747729
   0.38391690  0.19189447  0.58912001
   0.39367943  0.20006863  0.79978893
   0.40064954  0.40169583  0.00172399
   0.40066399  0.40095985  0.20006953
   0.39985286  0.40260581  0.40021518
   0.39818016  0.40000918  0.59880419
   0.40133549  0.40200723  0.80153979
   0.40257769  0.60165406  0.00126653
   0.40064586  0.59928552  0.19931033
   0.39975640  0.59929924  0.39908060
   0.39951902  0.60077686  0.59942529
   0.40124381  0.60206928  0.80118006
   0.40125328  0.80042532  0.99954220
   0.40135083  0.80016041  0.19969847
   0.39368927  0.79427164  0.39397286
   0.40065089  0.80052976  0.59865073
   0.40082652  0.80155206  0.79964907
   0.59973099  0.99949288  0.00039783
   0.60197312  0.00017712  0.19850678
   0.59404285  0.99384464  0.38717269
   0.60947039  0.00121681  0.80865000
   0.60399834  0.20103146  0.00375372
   0.60008923  0.20117311  0.19917848
   0.60121469  0.20056707  0.39562326
   0.57458775  0.19796126  0.57699560
   0.60165027  0.40009892  0.00022454
   0.60022485  0.40169807  0.19862902
   0.60291727  0.40485137  0.39844280
   0.60121309  0.40598143  0.60103230
   0.59404449  0.40724180  0.80057173
   0.60264098  0.60253086  0.00213084
   0.60182121  0.60178113  0.20040182
   0.60021257  0.60196121  0.39889780
   0.60010286  0.60130182  0.59930824
   0.60196487  0.60382889  0.80214943
   0.60263559  0.80180685  0.00117588
   0.60264770  0.80086658  0.20047034
   0.60164912  0.80179078  0.40192773
   0.60399170  0.80064151  0.60334722
   0.59975243  0.79972513  0.80061919
   0.80313578  0.00448417  0.99903330
   0.80324370  0.00116789  0.20099720
   0.80420990  0.00200524  0.40142368
   0.81064483  0.00137355  0.60920991
   0.80357487  0.20092506  0.19503963
   0.80378637  0.20071636  0.39506610
   0.81064625  0.40184455  0.00967167
   0.80253721  0.40341881  0.20234224
   0.80335662  0.40237768  0.39889221
   0.80276106  0.40869228  0.59443352
   0.80419977  0.60316102  0.00258554
   0.80186060  0.60203003  0.19898091
   0.80058127  0.60122946  0.39973821
   0.80335669  0.60484779  0.60136488
   0.80378283  0.60909649  0.80344711
   0.80324652  0.80261458  0.00244575
   0.80571545  0.80343859  0.20266937
   0.80186164  0.80326050  0.40021335
   0.80252975  0.80059084  0.59950270
   0.80358253  0.80892030  0.80303246
   0.00534555  0.20074787  0.00497983
   0.00982844  0.20101106  0.80515579
   0.00983214  0.40506826  0.00920443
   0.80598743  0.99758904  0.80510383
   0.80598084  0.20127406  0.00879618
   0.59783528  0.00218596  0.59615222
   0.59783710  0.20207291  0.79603966
   0.79760856  0.20035037  0.59718523
   0.82056358  0.20077270  0.82020019
   0.79761016  0.40080229  0.79763051
 
 position of ions in cartesian coordinates  (Angst):
   0.03686000  0.03433000  0.04949000
  12.09572704 -1.18918832  2.08945857
  -1.57314000 -2.43822000  4.24651000
  -2.52998000 -3.67023000  6.35838000
  -3.46231000 -4.87166000  8.53571000
  -1.66460000  1.23760000  2.13319000
  -2.54602000 -0.00445000  4.23120000
  -3.40484000 -1.24788000  6.37787000
  -2.55861000  3.66586000  2.08581000
  -3.42582000  2.46871000  4.23439000
  -4.30008000  1.21396000  6.36556000
  -5.10788000 -0.05416000  8.57933000
  -2.59315000  7.35477000  0.04064000
  -3.45936000  6.16360000  2.15333000
  -4.29345000  4.91042000  4.24102000
  -5.16543000  3.69427000  6.36804000
  -6.04841000  2.45017000  8.50630000
  -4.28416000  8.65515000  2.22322000
   7.75491000  7.26355000  4.26120000
  -6.03859000  6.14435000  6.37774000
  -6.90583000  4.92932000  8.49564000
   2.60152000  0.00246000  0.01651000
   1.68905000 -1.27465000  2.22161000
  -3.47355000  9.82800000  0.02408000
   0.02392000 -3.63772000  6.30762000
  -0.85098000 -4.90085000  8.51454000
   1.71615000  2.42980000  0.04794000
   0.89627000  1.19181000  2.16648000
   0.04276000 -0.11047000  4.23758000
  -0.91215000 -1.17553000  6.42836000
  -1.78137000 -2.46812000  8.52583000
   0.83992000  4.86579000 -0.00051000
   0.02307000  3.62709000  2.12116000
  -0.85155000  2.44442000  4.24539000
  -1.71799000  1.24598000  6.34571000
  -2.57384000  0.03073000  8.51318000
  -4.27660576  1.23497734 10.59875694
  -0.87311000  6.06629000  2.07033000
  -1.71882000  4.88964000  4.23445000
  -2.57767000  3.67756000  6.36581000
  -3.44786000  2.45471000  8.48598000
  -5.18865000  3.69998000 10.59604000
  -1.68699000  8.54895000  2.03404000
  -2.63405000  7.41841000  4.21944000
  -3.45574000  6.13457000  6.35509000
  -4.31283000  4.90421000  8.49029000
   0.88621000 -6.12539000 10.61736000
  -0.02406000 11.02275000  2.09415000
  -1.02468000  9.77833000  4.15222000
  -1.79485000  8.49934000  6.34594000
   1.74824000 -4.88420000  8.50851000
   4.31791000  2.45190000  0.01312000
   3.47596000  1.23275000  2.10272000
   2.64925000  0.10625000  4.22460000
   1.61798000 -1.26664000  6.25931000
   0.80196000 -2.45825000  8.49617000
   3.45393000  4.90418000  0.01805000
   2.60302000  3.67912000  2.12405000
   1.72328000  2.47221000  4.24909000
   0.85748000  1.22289000  6.35768000
   0.01660000  0.00436000  8.51030000
   2.61225000  7.35615000  0.00865000
   1.74444000  6.11297000  2.11144000
   0.87239000  4.88837000  4.23253000
  -0.00002000  3.67817000  6.35970000
  -0.85220000  2.45703000  8.50189000
  -2.56819000  3.67045000 10.60350000
   0.87924000  8.57100000  2.11097000
  -0.03150000  7.30789000  4.17369000
  -0.84979000  6.12958000  6.34692000
  -1.71767000  4.90979000  8.48105000
   3.44964000 12.23174000 -0.00529000
   6.96697000 -1.22302000  2.12115000
   1.73438000  9.79134000  4.10139000
   4.43193000 -4.95114000  8.59964000
   6.95951000  2.43114000  0.04875000
   6.06638000  1.23479000  2.12363000
   5.23753000  0.02296000  4.20947000
   4.12164000 -1.12058000  6.13470000
   6.07936000  4.89109000  0.00666000
   5.19934000  3.69429000  2.11320000
   4.36001000  2.50783000  4.23476000
   3.46038000  1.27963000  6.38574000
   2.50231000  0.07180000  8.50421000
   5.20457000  7.35888000  0.02228000
   4.34320000  6.13412000  2.12747000
   3.46657000  4.91938000  4.23501000
   2.60482000  3.68260000  6.36293000
   1.74438000  2.46992000  8.51663000
   4.34287000  9.80557000  0.00757000
   3.48873000  8.57219000  2.12365000
   2.60404000  7.34840000  4.26263000
   1.77194000  6.09940000  6.40133000
   0.87116000  4.87877000  8.49584000
   6.11444424 -6.08097266 10.62533694
   9.56748000 -1.22888000  2.15207000
   8.71314000 -2.44744000  4.28015000
   7.90455000 -3.72919000  6.48653000
   8.72961000  1.25437000  2.08424000
   7.87173000  0.02546000  4.20808000
   8.74702000  4.85172000  0.11160000
   7.80495000  3.68986000  2.15711000
   6.97356000  2.47206000  4.24407000
   6.09617000  1.35056000  6.32012000
   7.81916000  7.36108000  0.03160000
   6.94778000  6.14317000  2.11685000
   6.06995000  4.90255000  4.24843000
   5.22187000  3.71067000  6.38923000
   4.33856000  2.52375000  8.53480000
   6.94086000  9.80496000  0.02552000
   6.10698000  8.58746000  2.15148000
   5.20683000  7.37420000  4.24887000
   4.36875000  6.11966000  6.36495000
   3.46962000  4.97384000  8.52581000
  -0.82412000  2.42826000  0.04839000
  -4.21345000 -2.47441000  8.54455000
  -1.67167000  4.90492000  0.08866000
   2.67229000  7.27202000  8.54353000
   9.56153000  2.40046000  0.10680000
   5.19177000 -3.63630000  6.34311000
   3.46246000 -2.41348000  8.46088000
   6.92249000 -1.21812000  6.35400000
   6.25841000 -2.58055000  8.72242000
   5.18832000  0.00820000  8.47768000
 


--------------------------------------------------------------------------------------------------------


 k-point   1 :   0.0000 0.0000 0.0000  plane waves:   45567
 k-point   2 :   0.2500 0.0000 0.0000  plane waves:   45468
 k-point   3 :   0.0000 0.0000-0.2500  plane waves:   45468
 k-point   4 :   0.5000 0.0000 0.0000  plane waves:   45464
 k-point   5 :   0.0000 0.0000 0.5000  plane waves:   45464
 k-point   6 :   0.0000 0.2500 0.0000  plane waves:   45468
 k-point   7 :   0.2500 0.2500 0.0000  plane waves:   45502
 k-point   8 :   0.0000-0.2500-0.2500  plane waves:   45502
 k-point   9 :   0.5000 0.2500 0.0000  plane waves:   45494
 k-point  10 :   0.0000-0.2500 0.5000  plane waves:   45494
 k-point  11 :  -0.2500 0.2500 0.0000  plane waves:   45469
 k-point  12 :   0.0000-0.2500 0.2500  plane waves:   45470
 k-point  13 :   0.0000 0.5000 0.0000  plane waves:   45472
 k-point  14 :   0.2500 0.5000 0.0000  plane waves:   45502
 k-point  15 :   0.0000 0.5000-0.2500  plane waves:   45502
 k-point  16 :   0.5000 0.5000 0.0000  plane waves:   45470
 k-point  17 :   0.0000 0.5000 0.5000  plane waves:   45470
 k-point  18 :   0.2500 0.0000 0.2500  plane waves:   45497
 k-point  19 :   0.5000 0.0000 0.2500  plane waves:   45499
 k-point  20 :  -0.2500 0.0000 0.5000  plane waves:   45499
 k-point  21 :  -0.2500 0.0000 0.2500  plane waves:   45470
 k-point  22 :   0.2500 0.2500 0.2500  plane waves:   45516
 k-point  23 :   0.5000 0.2500 0.2500  plane waves:   45501
 k-point  24 :  -0.2500-0.2500 0.5000  plane waves:   45501
 k-point  25 :  -0.2500 0.2500 0.2500  plane waves:   45454
 k-point  26 :  -0.2500-0.2500 0.2500  plane waves:   45454
 k-point  27 :   0.2500 0.5000 0.2500  plane waves:   45493
 k-point  28 :   0.5000 0.5000 0.2500  plane waves:   45500
 k-point  29 :  -0.2500 0.5000 0.5000  plane waves:   45500
 k-point  30 :  -0.2500 0.5000 0.2500  plane waves:   45488
 k-point  31 :   0.2500-0.2500 0.2500  plane waves:   45479
 k-point  32 :   0.5000-0.2500 0.2500  plane waves:   45499
 k-point  33 :  -0.2500 0.2500 0.5000  plane waves:   45499
 k-point  34 :   0.5000 0.0000 0.5000  plane waves:   45474
 k-point  35 :   0.5000 0.2500 0.5000  plane waves:   45488
 k-point  36 :   0.5000 0.5000 0.5000  plane waves:   45516

 maximum and minimum number of plane-waves per node :     45567    45454

 maximum number of plane-waves:     45567
 maximum index in each direction: 
   IXMAX=   24   IYMAX=   24   IZMAX=   24
   IXMIN=  -24   IYMIN=  -24   IZMIN=  -24


 serial   3D FFT for wavefunctions
 parallel 3D FFT for charge:
    minimum data exchange during FFTs selected (reduces bandwidth)


 total amount of memory used by VASP MPI-rank0  6702056. kBytes
=======================================================================

   base      :      30000. kBytes
   nonl-proj :     799080. kBytes
   fftplans  :      67629. kBytes
   grid      :     159195. kBytes
   one-center:       1928. kBytes
   wavefun   :    5644224. kBytes
 
     INWAV:  cpu time      0.0001: real time      0.0001
 Broyden mixing: mesh for mixing (old mesh)
   NGX = 49   NGY = 49   NGZ = 49
  (NGX  =196   NGY  =196   NGZ  =196)
  gives a total of 117649 points

 initial charge density was supplied:
 charge density of overlapping atoms calculated
 number of electron    1364.0000000 magnetization 
 keeping initial charge density in first step


--------------------------------------------------------------------------------------------------------


 Maximum index for augmentation-charges          5254 (set IRDMAX)


--------------------------------------------------------------------------------------------------------


 First call to EWALD:  gamma=   0.149
 Maximum number of real-space cells 3x 3x 3
 Maximum number of reciprocal cells 3x 3x 3

    FEWALD:  cpu time      0.2642: real time      0.0559


--------------------------------------- Ionic step        1  -------------------------------------------




--------------------------------------- Iteration      1(   1)  ---------------------------------------


    POTLOK:  cpu time      0.2493: real time      0.3005
    SETDIJ:  cpu time      0.3139: real time      0.0412
     EDDAV:  cpu time     90.6148: real time     91.2817
       DOS:  cpu time      0.0535: real time      0.0538
    --------------------------------------------
      LOOP:  cpu time     91.2315: real time     91.6772

 eigenvalue-minimisations  : 59040
 total energy-change (2. order) : 0.2324113E+05  (-0.7102427E+05)
 number of electron    1364.0000000 magnetization 
 augmentation part     1364.0000000 magnetization 

 Free energy of the ion-electron system (eV)
  ---------------------------------------------------
  alpha Z        PSCENC =     12315.99909697
  Ewald energy   TEWEN  =   -129906.87627627
  -Hartree energ DENC   =    -36092.45985752
  -exchange      EXHF   =         0.00000000
  -V(xc)+E(xc)   XCENC  =      3691.33765282
  PAW double counting   =    134689.96621064  -132185.80545990
  entropy T*S    EENTRO =        -0.00259223
  eigenvalues    EBANDS =      6612.28500931
  atomic energy  EATOM  =    164116.68312662
  Solvation  Ediel_sol  =         0.00000000
  ---------------------------------------------------
  free energy    TOTEN  =     23241.12691044 eV

  energy without entropy =    23241.12950267  energy(sigma->0) =    23241.12777451


--------------------------------------------------------------------------------------------------------




--------------------------------------- Iteration      1(   2)  ---------------------------------------


     EDDAV:  cpu time     89.8368: real time     90.3160
       DOS:  cpu time      0.0604: real time      0.0607
    --------------------------------------------
      LOOP:  cpu time     89.8972: real time     90.3767

 eigenvalue-minimisations  : 59104
 total energy-change (2. order) :-0.2295487E+05  (-0.2261267E+05)
 number of electron    1364.0000000 magnetization 
 augmentation part     1364.0000000 magnetization 

 Free energy of the ion-electron system (eV)
  ---------------------------------------------------
  alpha Z        PSCENC =     12315.99909697
  Ewald energy   TEWEN  =   -129906.87627627
  -Hartree energ DENC   =    -36092.45985752
  -exchange      EXHF   =         0.00000000
  -V(xc)+E(xc)   XCENC  =      3691.33765282
  PAW double counting   =    134689.96621064  -132185.80545990
  entropy T*S    EENTRO =        -0.00000542
  eigenvalues    EBANDS =    -16342.58973691
  atomic energy  EATOM  =    164116.68312662
  Solvation  Ediel_sol  =         0.00000000
  ---------------------------------------------------
  free energy    TOTEN  =       286.25475102 eV

  energy without entropy =      286.25475644  energy(sigma->0) =      286.25475283


--------------------------------------------------------------------------------------------------------




--------------------------------------- Iteration      1(   3)  ---------------------------------------


     EDDAV:  cpu time    118.9065: real time    119.5488
       DOS:  cpu time      0.0654: real time      0.0657
    --------------------------------------------
      LOOP:  cpu time    118.9719: real time    119.6145

 eigenvalue-minimisations  : 85372
 total energy-change (2. order) :-0.1480442E+04  (-0.1411236E+04)
 number of electron    1364.0000000 magnetization 
 augmentation part     1364.0000000 magnetization 

 Free energy of the ion-electron system (eV)
  ---------------------------------------------------
  alpha Z        PSCENC =     12315.99909697
  Ewald energy   TEWEN  =   -129906.87627627
  -Hartree energ DENC   =    -36092.45985752
  -exchange      EXHF   =         0.00000000
  -V(xc)+E(xc)   XCENC  =      3691.33765282
  PAW double counting   =    134689.96621064  -132185.80545990
  entropy T*S    EENTRO =         0.00135615
[...]
   -.164E+02 0.105E+03 0.305E+02   0.166E+02 -.105E+03 -.306E+02   -.134E+00 0.477E+00 0.146E+00   0.457E-04 -.416E-02 -.494E-02
   0.172E+02 -.916E+01 0.192E+02   -.173E+02 0.931E+01 -.194E+02   0.152E+00 -.150E+00 0.213E+00   -.625E-03 -.315E-02 0.126E-02
   0.996E+02 -.846E+02 0.154E+03   -.987E+02 0.847E+02 -.154E+03   -.836E+00 -.155E+00 0.302E+00   -.741E-03 0.247E-02 -.500E-02
   0.119E+03 -.983E+02 0.130E+03   -.119E+03 0.990E+02 -.129E+03   -.106E+00 -.672E+00 -.592E+00   -.312E-02 0.423E-02 -.203E-02
   0.112E+03 -.717E+02 0.149E+03   -.112E+03 0.708E+02 -.149E+03   -.192E+00 0.939E+00 0.353E+00   -.292E-02 -.792E-02 -.540E-02
   0.125E+03 -.812E+02 0.133E+03   -.126E+03 0.809E+02 -.132E+03   0.667E+00 0.332E+00 -.698E+00   -.904E-02 -.358E-02 0.214E-02
   0.337E+02 -.131E+03 -.287E+02   -.336E+02 0.130E+03 0.287E+02   -.640E-01 0.388E+00 0.103E-01   0.892E-02 -.351E-02 0.389E-02
   -.739E+02 -.547E+02 0.103E+03   0.737E+02 0.545E+02 -.103E+03   0.170E+00 0.222E+00 -.276E+00   0.457E-02 -.402E-03 0.924E-02
   0.134E+03 0.264E+02 -.412E+02   -.133E+03 -.262E+02 0.409E+02   -.597E-01 -.208E+00 0.290E+00   0.134E-02 0.637E-02 -.148E-02
   0.199E+03 -.142E+03 0.245E+03   -.199E+03 0.142E+03 -.245E+03   -.170E+00 0.566E-01 -.169E+00   -.183E-02 0.877E-03 -.206E-02
   0.234E+02 0.104E+03 0.938E+02   -.235E+02 -.104E+03 -.938E+02   0.120E+00 -.335E+00 0.711E-01   0.229E-02 0.577E-02 -.259E-02
 -----------------------------------------------------------------------------------------------
   0.102E+01 -.670E+00 0.122E+01   -.104E-11 -.469E-12 -.540E-11   -.102E+01 0.678E+00 -.124E+01   -.753E-02 -.857E-02 -.107E-02
 
 
 POSITION                                       TOTAL-FORCE (eV/Angst)
 -----------------------------------------------------------------------------------
      0.03686      0.03433      0.04949        -0.001331      0.002859     -0.003613
     12.09573     -1.18919      2.08946         0.000453      0.005391     -0.002570
     -1.57314     -2.43822      4.24651         0.003365      0.000825     -0.000127
     -2.52998     -3.67023      6.35838         0.000044      0.000556      0.000524
     -3.46231     -4.87166      8.53571        -0.000398      0.001426      0.000737
     -1.66460      1.23760      2.13319        -0.002149      0.003561     -0.002581
     -2.54602     -0.00445      4.23120         0.000337      0.003675      0.000548
     -3.40484     -1.24788      6.37787        -0.000339     -0.000290      0.000484
     -2.55861      3.66586      2.08581         0.001164      0.000278     -0.001151
     -3.42582      2.46871      4.23439        -0.003118      0.001897      0.000935
     -4.30008      1.21396      6.36556        -0.001198     -0.000286      0.002739
     -5.10788     -0.05416      8.57933         0.000293     -0.003435      0.002076
     -2.59315      7.35477      0.04064         0.000134     -0.000699     -0.000155
     -3.45936      6.16360      2.15333         0.000681     -0.000020     -0.000224
     -4.29345      4.91042      4.24102         0.000271     -0.002441     -0.000007
     -5.16543      3.69427      6.36804         0.000646     -0.003097      0.002249
     -6.04841      2.45017      8.50630         0.001757     -0.002407     -0.000772
     -4.28416      8.65515      2.22322         0.001183      0.002323      0.002552
      7.75491      7.26355      4.26120         0.001447     -0.004713      0.003869
     -6.03859      6.14435      6.37774        -0.001003     -0.001441      0.001553
     -6.90583      4.92932      8.49564         0.000611     -0.000599     -0.003721
      2.60152      0.00246      0.01651        -0.000059      0.001540     -0.002394
      1.68905     -1.27465      2.22161        -0.001604      0.003625     -0.004636
     -3.47355      9.82800      0.02408         0.002320      0.002263     -0.001605
      0.02392     -3.63772      6.30762        -0.000492     -0.001297     -0.000547
     -0.85098     -4.90085      8.51454         0.002088      0.000147     -0.000760
      1.71615      2.42980      0.04794         0.000367      0.003627     -0.001380
      0.89627      1.19181      2.16648        -0.000221      0.002950     -0.001851
      0.04276     -0.11047      4.23758        -0.002735      0.004564     -0.003367
     -0.91215     -1.17553      6.42836        -0.005249     -0.000811      0.000687
     -1.78137     -2.46812      8.52583        -0.001502     -0.000193      0.000869
      0.83992      4.86579     -0.00051         0.002440      0.002874      0.000357
      0.02307      3.62709      2.12116         0.000622      0.003392     -0.001746
     -0.85155      2.44442      4.24539        -0.001313      0.002557     -0.000842
     -1.71799      1.24598      6.34571        -0.002230      0.001423      0.002552
     -2.57384      0.03073      8.51318         0.000869     -0.001256      0.001037
     -4.27661      1.23498     10.59876         0.000429     -0.001070      0.001313
     -0.87311      6.06629      2.07033         0.000091     -0.001154     -0.001029
     -1.71882      4.88964      4.23445         0.000123      0.001398      0.001582
     -2.57767      3.67756      6.36581        -0.001400      0.001817      0.001814
     -3.44786      2.45471      8.48598         0.002367     -0.001148      0.002556
     -5.18865      3.69998     10.59604         0.002101     -0.001784     -0.002623
     -1.68699      8.54895      2.03404        -0.001685     -0.003583     -0.003845
     -2.63405      7.41841      4.21944        -0.001071     -0.001226      0.000252
     -3.45574      6.13457      6.35509         0.001683      0.001255      0.000532
     -4.31283      4.90421      8.49029         0.001980     -0.000527     -0.002205
      0.88621     -6.12539     10.61736         0.000370     -0.000746      0.002193
     -0.02406     11.02275      2.09415        -0.002458     -0.001306      0.000951
     -1.02468      9.77833      4.15222        -0.007073      0.002656     -0.003983
     -1.79485      8.49934      6.34594         0.004547      0.003067      0.001836
      1.74824     -4.88420      8.50851        -0.000413      0.001249     -0.000591
      4.31791      2.45190      0.01312         0.001033      0.001125      0.000119
      3.47596      1.23275      2.10272         0.000515      0.000813     -0.000006
      2.64925      0.10625      4.22460        -0.001760      0.004983     -0.004135
      1.61798     -1.26664      6.25931        -0.004388      0.000630     -0.007317
      0.80196     -2.45825      8.49617         0.002418     -0.002182     -0.005567
      3.45393      4.90418      0.01805        -0.000113      0.000551      0.000516
      2.60302      3.67912      2.12405         0.002823      0.003824      0.000152
      1.72328      2.47221      4.24909         0.000774      0.000873     -0.000119
      0.85748      1.22289      6.35768        -0.000569     -0.002464     -0.001366
      0.01660      0.00436      8.51030         0.001672     -0.002386     -0.001347
      2.61225      7.35615      0.00865        -0.001118     -0.001169     -0.000307
      1.74444      6.11297      2.11144         0.000807      0.000027     -0.000443
      0.87239      4.88837      4.23253         0.000958      0.001317      0.000088
     -0.00002      3.67817      6.35970         0.001821     -0.001557      0.000743
     -0.85220      2.45703      8.50189        -0.000237     -0.000400      0.000834
     -2.56819      3.67045     10.60350         0.000466     -0.000904     -0.000056
      0.87924      8.57100      2.11097        -0.001712     -0.000069      0.002605
     -0.03150      7.30789      4.17369        -0.004744      0.003034      0.003310
     -0.84979      6.12958      6.34692        -0.000078      0.000874     -0.001186
     -1.71767      4.90979      8.48105         0.001219      0.001068      0.000355
      3.44964     12.23174     -0.00529        -0.000642     -0.003227     -0.000472
      6.96697     -1.22302      2.12115        -0.001868     -0.002249      0.001239
      1.73438      9.79134      4.10139         0.000808     -0.000503     -0.000058
      4.43193     -4.95114      8.59964        -0.001516      0.001385     -0.002060
      6.95951      2.43114      0.04875        -0.000314     -0.001578      0.000353
      6.06638      1.23479      2.12363        -0.000536     -0.000602      0.000980
      5.23753      0.02296      4.20947         0.001353      0.001059     -0.000091
      4.12164     -1.12058      6.13470        -0.001861      0.001134     -0.002188
      6.07936      4.89109      0.00666        -0.001458     -0.001832     -0.000708
      5.19934      3.69429      2.11320         0.000535      0.002119      0.001787
      4.36001      2.50783      4.23476         0.001757      0.001006      0.000837
      3.46038      1.27963      6.38574         0.000984      0.001496      0.000575
      2.50231      0.07180      8.50421        -0.000022      0.000108      0.000888
      5.20457      7.35888      0.02228         0.000487     -0.000078      0.003479
      4.34320      6.13412      2.12747        -0.000207      0.000224     -0.000431
      3.46657      4.91938      4.23501         0.002658      0.000690     -0.000905
      2.60482      3.68260      6.36293         0.000374     -0.001063     -0.000034
      1.74438      2.46992      8.51663        -0.000432     -0.003045     -0.000085
      4.34287      9.80557      0.00757         0.000029     -0.001336      0.000746
      3.48873      8.57219      2.12365         0.002890     -0.001717      0.000292
      2.60404      7.34840      4.26263        -0.001866     -0.001401     -0.000162
      1.77194      6.09940      6.40133        -0.000535     -0.001483      0.000682
      0.87116      4.87877      8.49584        -0.002097     -0.002179      0.001404
      6.11444     -6.08097     10.62534        -0.000764     -0.002494      0.000872
      9.56748     -1.22888      2.15207         0.003661     -0.000389     -0.000004
      8.71314     -2.44744      4.28015         0.003142     -0.001042      0.000402
      7.90455     -3.72919      6.48653        -0.002177     -0.002500      0.000411
      8.72961      1.25437      2.08424        -0.001168      0.000002     -0.000919
      7.87173      0.02546      4.20808         0.001775      0.001120     -0.001219
      8.74702      4.85172      0.11160        -0.001402     -0.002828     -0.000462
      7.80495      3.68986      2.15711        -0.003165     -0.001859     -0.000209
      6.97356      2.47206      4.24407        -0.001046      0.000010      0.001551
      6.09617      1.35056      6.32012        -0.000680     -0.002240      0.000703
      7.81916      7.36108      0.03160         0.000918      0.000506      0.003243
      6.94778      6.14317      2.11685         0.001365     -0.000703      0.003015
      6.06995      4.90255      4.24843         0.001364     -0.000208      0.001272
      5.22187      3.71067      6.38923         0.000992     -0.001176     -0.000884
      4.33856      2.52375      8.53480         0.000293      0.002479      0.000974
      6.94086      9.80496      0.02552         0.001021      0.001527      0.003382
      6.10698      8.58746      2.15148         0.005065      0.000044      0.004154
      5.20683      7.37420      4.24887         0.002466     -0.001413      0.001672
      4.36875      6.11966      6.36495        -0.002109     -0.002399     -0.001634
      3.46962      4.97384      8.52581        -0.001044      0.000041     -0.000875
     -0.82412      2.42826      0.04839        -0.000774      0.000533     -0.000842
     -4.21345     -2.47441      8.54455        -0.000883     -0.000783      0.001657
     -1.67167      4.90492      0.08866         0.000650     -0.001861     -0.000283
      2.67229      7.27202      8.54353        -0.003214     -0.004078      0.000809
      9.56153      2.40046      0.10680        -0.002198     -0.004664     -0.000239
      5.19177     -3.63630      6.34311         0.001535      0.003591     -0.000275
      3.46246     -2.41348      8.46088         0.001964      0.003255     -0.000877
      6.92249     -1.21812      6.35400         0.001651     -0.002400     -0.000358
      6.25841     -2.58055      8.72242        -0.000434     -0.002084      0.000726
      5.18832      0.00820      8.47768        -0.000856     -0.000568      0.002821
 -----------------------------------------------------------------------------------
    total drift:                                0.001052     -0.000246     -0.013026


--------------------------------------------------------------------------------------------------------



  FREE ENERGIE OF THE ION-ELECTRON SYSTEM (eV)
  ---------------------------------------------------
  free  energy   TOTEN  =     -1104.49639420 eV

  energy  without entropy=    -1104.49649821  energy(sigma->0) =    -1104.49642887
 


--------------------------------------------------------------------------------------------------------


    POTLOK:  cpu time      0.4475: real time      0.1603


--------------------------------------------------------------------------------------------------------




--------------------------------------------------------------------------------------------------------


  
 reached required accuracy - stopping structural energy minimisation
     LOOP+:  cpu time   4039.6700: real time   4037.1817
    4ORBIT:  cpu time      0.0000: real time      0.0000



 total charge

# of ion       s       p       d       tot
------------------------------------------
    1        0.362   6.245   3.084   9.691
    2        0.375   6.243   3.114   9.732
    3        0.349   6.215   3.020   9.584
    4        0.359   6.239   3.071   9.670
    5        0.358   6.247   3.053   9.659
    6        0.362   6.245   3.084   9.691
    7        0.358   6.239   3.056   9.653
    8        0.356   6.230   3.072   9.658
    9        0.358   6.247   3.053   9.659
   10        0.357   6.240   3.053   9.650
   11        0.352   6.231   3.047   9.630
   12        0.354   6.229   3.048   9.632
   13        0.356   6.230   3.072   9.658
   14        0.359   6.239   3.071   9.670
   15        0.359   6.235   3.085   9.679
   16        0.357   6.238   3.052   9.646
   17        0.352   6.231   3.047   9.630
   18        0.349   6.215   3.020   9.584
   19        0.371   6.238   3.092   9.702
   20        0.359   6.235   3.085   9.679
   21        0.357   6.240   3.053   9.650
   22        0.359   6.240   3.070   9.669
   23        0.352   6.219   3.029   9.600
   24        0.358   6.239   3.056   9.653
   25        0.353   6.214   3.047   9.614
   26        0.357   6.239   3.049   9.645
   27        0.361   6.249   3.066   9.676
   28        0.362   6.244   3.082   9.688
   29        0.352   6.219   3.029   9.600
   30        0.371   6.238   3.104   9.713
   31        0.360   6.242   3.079   9.681
   32        0.359   6.247   3.055   9.661
   33        0.361   6.249   3.066   9.676
   34        0.359   6.240   3.070   9.669
   35        0.359   6.235   3.083   9.677
   36        0.357   6.241   3.062   9.660
   37        0.357   6.241   3.062   9.660
   38        0.360   6.242   3.079   9.681
   39        0.357   6.239   3.049   9.645
   40        0.358   6.238   3.073   9.669
   41        0.358   6.236   3.073   9.667
   42        0.359   6.235   3.084   9.677
   43        0.371   6.238   3.104   9.713
   44        0.353   6.214   3.047   9.614
   45        0.358   6.240   3.050   9.647
   46        0.358   6.238   3.073   9.669
   47        0.358   6.240   3.062   9.659
   48        0.355   6.237   3.047   9.640
   49        0.349   6.206   3.041   9.596
   50        0.368   6.218   3.118   9.703
   51        0.354   6.230   3.063   9.647
   52        0.358   6.238   3.065   9.661
   53        0.360   6.237   3.086   9.682
   54        0.372   6.246   3.068   9.686
   55        0.349   6.206   3.040   9.596
   56        0.355   6.232   3.052   9.639
   57        0.356   6.238   3.053   9.647
   58        0.359   6.240   3.075   9.674
   59        0.360   6.237   3.086   9.682
   60        0.355   6.237   3.047   9.640
   61        0.359   6.232   3.098   9.689
   62        0.359   6.238   3.074   9.671
   63        0.356   6.238   3.053   9.647
   64        0.358   6.238   3.065   9.661
   65        0.358   6.240   3.062   9.659
   66        0.356   6.238   3.054   9.648
   67        0.356   6.238   3.054   9.648
   68        0.359   6.232   3.098   9.689
   69        0.355   6.232   3.052   9.639
   70        0.354   6.230   3.063   9.647
   71        0.357   6.235   3.065   9.657
   72        0.359   6.237   3.079   9.675
   73        0.357   6.235   3.079   9.672
   74        0.355   6.223   3.078   9.656
   75        0.352   6.233   3.033   9.618
   76        0.354   6.232   3.050   9.635
   77        0.355   6.235   3.063   9.654
   78        0.358   6.227   3.084   9.668
   79        0.362   6.221   3.094   9.677
   80        0.353   6.233   3.045   9.631
   81        0.359   6.238   3.070   9.667
   82        0.355   6.239   3.043   9.637
   83        0.358   6.227   3.084   9.668
   84        0.355   6.223   3.078   9.656
   85        0.357   6.240   3.053   9.650
   86        0.357   6.236   3.072   9.666
   87        0.359   6.238   3.070   9.667
   88        0.355   6.235   3.063   9.654
   89        0.357   6.235   3.079   9.672
   90        0.358   6.236   3.068   9.662
   91        0.357   6.240   3.053   9.650
   92        0.353   6.233   3.045   9.631
   93        0.354   6.232   3.050   9.635
   94        0.359   6.237   3.079   9.675
   95        0.357   6.249   3.044   9.650
   96        0.358   6.235   3.074   9.667
   97        0.352   6.232   3.038   9.622
   98        0.354   6.231   3.040   9.625
   99        0.357   6.243   3.063   9.663
  100        0.355   6.231   3.059   9.646
  101        0.354   6.231   3.040   9.625
  102        0.358   6.237   3.076   9.670
  103        0.358   6.234   3.084   9.676
  104        0.356   6.224   3.079   9.659
  105        0.352   6.232   3.039   9.622
  106        0.358   6.233   3.082   9.673
  107        0.356   6.241   3.043   9.640
  108        0.358   6.234   3.084   9.676
  109        0.355   6.231   3.059   9.646
  110        0.358   6.235   3.074   9.667
  111        0.357   6.239   3.059   9.655
  112        0.358   6.233   3.082   9.673
  113        0.358   6.237   3.076   9.670
  114        0.357   6.243   3.063   9.663
  115        0.417   6.338   4.157  10.912
  116        0.423   6.314   4.244  10.982
  117        0.423   6.314   4.245  10.982
  118        0.425   6.315   4.249  10.988
  119        0.425   6.315   4.249  10.988
  120        0.356   6.271   2.113   8.740
  121        0.356   6.271   2.113   8.740
  122        0.354   6.275   2.097   8.726
  123        0.368   6.295   2.148   8.811
  124        0.354   6.275   2.097   8.726
--------------------------------------------------
tot         44.647 773.757 381.0941199.498
 

 total amount of memory used by VASP MPI-rank0  6702056. kBytes
=======================================================================

   base      :      30000. kBytes
   nonl-proj :     799080. kBytes
   fftplans  :      67629. kBytes
   grid      :     159195. kBytes
   one-center:       1928. kBytes
   wavefun   :    5644224. kBytes
 
  
  
 General timing and accounting informations for this job:
 ========================================================
  
                  Total CPU time used (sec):     4353.356
                            User time (sec):     3822.106
                          System time (sec):      531.250
                         Elapsed time (sec):     4343.789
  
                   Maximum memory used (kb):     9974596.
                   Average memory used (kb):          N/A
  
                          Minor page faults:      1258027
                          Major page faults:           11
                 Voluntary context switches:       325168
