125
Lattice="-7.525 7.525 7.525 7.525 -7.525 7.525 7.525 7.525 -7.525" Properties=species:S:1:pos:R:3:forces:R:3 stress="-0.00839421186490952 0.00010009508185178983 0.00020220617115123993 0.00010009508185178983 -0.00811932331998737 0.00022971874337813329 0.00020220617115123993 0.00022971874337813329 -0.007930873434949576" free_energy=-1132.07297696 energy=-1132.08656979 pbc="T T T"
Cr       3.01000000      -3.01000000       3.01000000       0.26744600       0.28122700       0.19750100
Cr       3.01000000       9.03000000      -3.01000000       0.14659400      -0.18686400       0.16285800
Cr       4.51500000       7.52500000      -1.50500000      -0.13044300       0.12189900      -0.16166900
Cr       6.02000000       3.01000000       3.01000000       0.45301700      -0.25859700       0.46713700
Cr       1.50500000       4.51500000       4.51500000      -0.01487400      -0.02055800       0.00840900
Cr      -4.51500000       7.52500000       4.51500000       0.15882400      -0.08527600       0.14054500
Ti       3.01000000       0.00000000      -0.00000000       0.03028900      -0.00594600       0.03465100
Ti       4.51500000      -4.51500000       7.52500000       0.40614500      -0.00203600       0.02303800
Ti       4.51500000       4.51500000       1.50500000       0.19243000       0.24342500       0.22356800
Ti       1.50500000      10.53500000       1.50500000       0.20679900       0.19243700       0.22295400
Ti       4.51500000       7.52500000       4.51500000      -0.51760400       0.52329700      -0.59191000
V        0.00000000       0.00000000       0.00000000       0.54835800       0.52725000       0.53587000
V        1.50500000       1.50500000      -1.50500000      -0.10344400       0.06510800      -0.23202100
V        3.01000000       3.01000000      -3.01000000       0.15713100       0.19915000       0.15401500
V        4.51500000       4.51500000      -4.51500000      -0.02446700       0.00164100       0.05748900
V        6.02000000       6.02000000      -6.02000000       0.02216900      -0.04306800       0.38057100
V        1.50500000      -1.50500000       1.50500000      -0.12103000      -0.46221600       0.43796400
V        4.51500000       1.50500000      -1.50500000      -0.09421000      -0.07511600      -0.59831300
V        6.02000000       3.01000000      -3.01000000       0.02729700       0.01194300      -0.28584900
V        7.52500000       4.51500000      -4.51500000      -0.34813600       0.24925200       0.26357500
V        4.51500000      -1.50500000       1.50500000       0.09313000      -0.42649600       0.43997500
V        6.02000000      -0.00000000       0.00000000      -0.01033500      -0.25385800      -0.00551700
V        7.52500000       1.50500000      -1.50500000      -0.42082200      -0.65051200      -0.64357500
V        9.03000000       3.01000000      -3.01000000       0.17510800       0.20013600      -0.57131500
V        4.51500000      -4.51500000       4.51500000      -0.22864800       0.18103900      -0.17209100
V        6.02000000      -3.01000000       3.01000000       0.07504500       0.01318300      -0.01663100
V        7.52500000      -1.50500000       1.50500000      -0.13485800       0.10735700       0.16143800
V        9.03000000       0.00000000      -0.00000000      -0.03437800      -0.15784800       0.04696300
V       10.53500000       1.50500000      -1.50500000       0.06400300      -0.60779100      -0.57934100
V        6.02000000      -6.02000000       6.02000000       0.55169700       0.37300100      -0.01017300
V        7.52500000      -4.51500000       4.51500000      -0.12879000       0.18996200       0.12069600
V        9.03000000      -3.01000000       3.01000000       0.01322400       0.22744900       0.28778300
V       10.53500000      -1.50500000       1.50500000       0.15026900       0.10762700       0.14424000
V       12.04000000      -0.00000000       0.00000000      -0.60072800       0.60491800       0.55407600
V       -1.50500000       1.50500000       1.50500000       0.27444600      -0.27463400       0.30597200
V        0.00000000       3.01000000      -0.00000000       0.03366100       0.01191300       0.02465000
V        1.50500000       4.51500000      -1.50500000       0.00934600       0.02080300      -0.04588000
V        3.01000000       6.02000000      -3.01000000       0.15992300       0.16438300       0.18095600
V        4.51500000       7.52500000      -4.51500000      -0.15412900       0.18028800       0.18514500
V        0.00000000      -0.00000000       3.01000000       0.02012500       0.00850600       0.04217300
V        1.50500000       1.50500000       1.50500000      -0.36262900       0.16537400       0.18157800
V        3.01000000       3.01000000       0.00000000      -0.44197000      -0.29848000      -0.47053900
V        4.51500000       4.51500000      -1.50500000      -0.13717200       0.08863500      -0.17346100
V        6.02000000       6.02000000      -3.01000000      -0.21077200       0.24542000       0.16654000
V        1.50500000      -1.50500000       4.51500000       0.13834000      -0.20274800      -0.15271000
V        3.01000000       0.00000000       3.01000000       0.01338400      -0.14870400      -0.00671400
V        4.51500000       1.50500000       1.50500000       0.41713400       0.09955300       0.43760200
V        7.52500000       4.51500000      -1.50500000      -0.41632100       0.70249500      -0.65723100
V        3.01000000      -3.01000000       6.02000000       0.28400900       0.84588300      -0.73996900
V        4.51500000      -1.50500000       4.51500000      -0.14651000      -0.15155900      -0.18352700
V        6.02000000      -0.00000000       3.01000000      -0.03365400      -0.11660200       0.04152400
V        7.52500000       1.50500000       1.50500000      -0.54466300      -0.51064600       0.85068900
V        6.02000000      -3.01000000       6.02000000       0.29839000       0.30030000      -0.27928200
V        7.52500000      -1.50500000       4.51500000       0.03941200       0.01940300       0.00751900
V        9.03000000       0.00000000       3.01000000       0.16238100       0.20499100       0.18797400
V       10.53500000       1.50500000       1.50500000       0.23736200      -0.78882200       0.78883000
V       -3.01000000       3.01000000       3.01000000      -0.21020900      -0.16095200       0.16608200
V       -1.50500000       4.51500000       1.50500000       0.14857500       0.11295400       0.14053800
V       -0.00000000       6.02000000       0.00000000       0.00179800       0.03312600      -0.23886800
V        1.50500000       7.52500000      -1.50500000       0.09923400       0.17911400      -0.20811600
V       -1.50500000       1.50500000       4.51500000      -0.13135800      -0.18231600       0.19218100
V        0.00000000       3.01000000       3.01000000      -0.10611300      -0.05800600       0.19209700
V        1.50500000       4.51500000       1.50500000      -0.00908500      -0.04258200      -0.34117300
V        3.01000000       6.02000000      -0.00000000      -0.07695900       0.44617700      -0.44561000
V       -0.00000000       0.00000000       6.02000000       0.06673700       0.04593000      -0.02735500
V        1.50500000       1.50500000       4.51500000      -0.13817800      -0.20598100       0.11725500
V        6.02000000       6.02000000       0.00000000       0.12419000       0.65538700      -0.44584200
V        1.50500000      -1.50500000       7.52500000      -0.01112700       0.39279200      -0.02399200
V        3.01000000       0.00000000       6.02000000       0.00851300       0.03436300      -0.06359100
V        4.51500000       1.50500000       4.51500000       0.28773000       0.01644600      -0.03759100
V        7.52500000       4.51500000       1.50500000      -0.54333400       0.46906400       0.81666300
V        3.01000000      -3.01000000       9.03000000       0.26017800       0.79764000       0.85243400
V        4.51500000      -1.50500000       7.52500000      -0.04084600      -0.02759000      -0.01138000
V        6.02000000      -0.00000000       6.02000000       0.00027800      -0.00631500      -0.04304100
V        7.52500000       1.50500000       4.51500000      -0.22242900       0.15562500      -0.16390200
V        9.03000000       3.01000000       3.01000000       0.27357100      -0.20717900       0.55840800
V       -4.51500000       4.51500000       4.51500000       0.00936900       0.00076800       0.01060700
V       -3.01000000       6.02000000       3.01000000      -0.34743500       0.16424100       0.18151400
V       -1.50500000       7.52500000       1.50500000      -0.15319600       0.17384800      -0.14961900
V        0.00000000       9.03000000      -0.00000000      -0.23223900      -0.27328900      -0.27926000
V        1.50500000      10.53500000      -1.50500000       0.15467800      -0.12571300      -0.21040800
V       -3.01000000       3.01000000       6.02000000      -0.18039700      -0.10459300      -0.20346700
V       -1.50500000       4.51500000       4.51500000      -0.21644500      -0.17367000       0.17569900
V        1.50500000       7.52500000       1.50500000       0.14618400       0.15707700      -0.15028600
V        3.01000000       9.03000000       0.00000000       0.47366700      -0.43538200      -0.39727000
V       -1.50500000       1.50500000       7.52500000      -0.18538700      -0.17767900      -0.21034900
V        0.00000000       3.01000000       6.02000000       0.00171200      -0.01872700      -0.29971600
V        3.01000000       6.02000000       3.01000000      -0.39891400       0.08057500       0.19309100
V        4.51500000       7.52500000       1.50500000      -0.04358300       0.03341300       0.07747400
V        0.00000000      -0.00000000       9.03000000      -0.14519700      -0.12264900      -0.17196300
V        1.50500000       1.50500000       7.52500000      -0.03071100      -0.26373900      -0.20127800
V        3.01000000       3.01000000       6.02000000       0.00237500       0.01541100      -0.07305200
V        4.51500000       4.51500000       4.51500000      -0.21777500      -0.62230200      -0.60138200
V        6.02000000       6.02000000       3.01000000       0.49342400       0.09510300      -0.34467700
V        1.50500000      -1.50500000      10.53500000       0.15545900      -0.07317500       0.18663300
V        3.01000000       0.00000000       9.03000000       0.17023300      -0.12466700      -0.16561400
V        4.51500000       1.50500000       7.52500000      -0.00253300      -0.02821100      -0.00755200
V        6.02000000       3.01000000       6.02000000       0.02962500      -0.34616500       0.09415200
V        7.52500000       4.51500000       4.51500000       0.37146000      -0.71066000      -0.69033000
V       -6.02000000       6.02000000       6.02000000       0.29318100      -0.16031700      -0.40738400
V       -3.01000000       9.03000000       3.01000000       0.04122600      -0.16494800       0.16808200
V       -1.50500000      10.53500000       1.50500000       0.01232400       0.02890800      -0.00214100
V       -0.00000000      12.04000000       0.00000000       0.33799200      -0.31826200       0.29505900
V       -4.51500000       4.51500000       7.52500000       0.30995200       0.26112200      -0.33596400
V       -3.01000000       6.02000000       6.02000000       0.07853500      -0.11160200      -0.44863100
V       -1.50500000       7.52500000       4.51500000      -0.14911200       0.07633500       0.12733300
V        0.00000000       9.03000000       3.01000000      -0.26803200      -0.05359800       0.24856300
V       -3.01000000       3.01000000       9.03000000      -0.19089100       0.17398900       0.16454800
V       -1.50500000       4.51500000       7.52500000      -0.26233100       0.00375600      -0.01603700
V       -0.00000000       6.02000000       6.02000000       0.00579400      -0.04463900      -0.09133400
V        1.50500000       7.52500000       4.51500000       0.15795100       0.23753900       0.12631500
V        3.01000000       9.03000000       3.01000000      -0.01742100      -0.07047400      -0.05484700
V       -1.50500000       1.50500000      10.53500000       0.02848600       0.21367800      -0.25219600
V        0.00000000       3.01000000       9.03000000      -0.28234700       0.05040600      -0.06946900
V        3.01000000       6.02000000       6.02000000      -0.66880100      -0.30913000      -0.01538000
V       -0.00000000       0.00000000      12.04000000       0.38465300       0.40520500      -0.39507200
V        3.01000000       3.01000000       9.03000000       0.24999100      -0.01079000       0.00506000
V        4.51500000       4.51500000       7.52500000      -0.29739600      -0.54878500       0.51145500
W        6.02000000       3.01000000      -0.00000000      -0.22917000      -0.29932700      -0.35804900
W        3.01000000       3.01000000       3.01000000      -0.59507400      -0.16196100       0.55351000
W       -0.00000000       6.02000000       3.01000000       0.15017300      -0.18300400       0.22662700
W        1.50500000       4.51500000       7.52500000      -0.04822500       0.01923300       0.00683400
W        1.50500000       1.50500000      10.53500000       0.21878800      -0.19773600       0.18435400
Zr       9.03000000       3.01000000       0.00000000       0.38404700       0.04035800      -0.00726800
Zr       6.02000000       6.02000000       6.02000000       0.25386800      -0.19433900       0.19913500
