125
Lattice="-7.545998088651924 7.546311014689217 7.54745406786806 7.5469299715897655 -7.547915183884702 7.549990181031429 7.5460172019474445 7.547934301337258 -7.5490582840653" Properties=species:S:1:pos:R:3:forces:R:3 energy=-1137.9481390976598 free_energy=-1137.9481390976598 stress="0.00019315303063158868 5.128752027954668e-06 -8.660577349436334e-05 5.128752027954668e-06 5.2183786286244134e-05 0.00023516604336437235 -8.660577349436334e-05 0.00023516604336437235 -0.00028550537700213174" pbc="T T T"
Cr       3.05872000      -2.99353978       3.02715169      -0.00007085       0.00544843       0.00031186
Cr       3.02961041       9.02463428      -2.97313750       0.00248049       0.00008568       0.00063285
Cr       4.49622275       7.57633246      -1.51769658       0.00176372      -0.00007157      -0.00143770
Cr       6.06088037       2.95942419       3.06728551       0.00116464       0.00047769       0.00101427
Cr       1.48961514       4.51361643       4.53497668      -0.00082572       0.00042604       0.00190112
Cr      -4.50350908       7.53914643       4.55154854       0.00114167       0.00089191      -0.00139520
Ti       3.02958148      -0.04023843       0.05167351       0.00024153       0.00158766      -0.00324478
Ti       4.59060942      -4.53552465       7.55310285       0.00196177       0.00156967      -0.00019277
Ti       4.53617281       4.52602065       1.49876163       0.00025682       0.00488024       0.00155101
Ti       1.55294222      10.56193411       1.51577277      -0.00170924       0.00325015       0.00241327
Ti       4.49633311       7.57831647       4.38786680      -0.00461153       0.00227149       0.00270468
V        0.12611785       0.06074420       0.07982958      -0.00414041      -0.00197383       0.00146905
V        1.52908433       1.51483401      -1.53728542      -0.00136717      -0.00148689      -0.00228348
V        3.04483906       3.05723380      -2.99919307      -0.00150132      -0.00073275      -0.00311594
V        4.51543095       4.52759609      -4.50958484      -0.00117147      -0.00052085      -0.00061197
V        6.03465577       6.03043049      -5.98336462       0.00065135       0.00200779      -0.00005879
V        1.53725619      -1.60758459       1.58685216       0.00051479       0.00291499       0.00000337
V        4.50574550       1.47979716      -1.57402440      -0.00272070       0.00196113      -0.00187073
V        6.02876667       3.02711228      -3.08739034      -0.00173192       0.00087541       0.00014465
V        7.48774141       4.53632441      -4.51320681      -0.00106753      -0.00086415       0.00307817
V        4.51884183      -1.58553597       1.59077805       0.00020984       0.00071421      -0.00195105
V        6.02714239      -0.04972262       0.02329887      -0.00107716      -0.00191324      -0.00266164
V        7.51221789       1.47239623      -1.56882231       0.00007198      -0.00426919      -0.00248465
V        9.07035397       3.06725349      -3.09066436       0.00246985       0.00069391      -0.00288295
V        4.50032783      -4.48991278       4.47556044       0.00056152       0.00079521       0.00327549
V        6.05156048      -3.03287826       2.99430437       0.00062099      -0.00057200       0.00317235
V        7.51818411      -1.50204954       1.52780164       0.00142694      -0.00082364       0.00090865
V        9.00587605      -0.02564536       0.01190366       0.00098407       0.00216364       0.00374081
V       10.49006033       1.42358904      -1.60619280      -0.00114773       0.00128487      -0.00173826
V        6.15205612      -5.94628964       5.99966212       0.00408062      -0.00043304       0.00485195
V        7.54207488      -4.47885743       4.50535262       0.00108147      -0.00208601       0.00080985
V        9.05652257      -2.97653587       3.07573153       0.00253374      -0.00232533       0.00049571
V       10.56260126      -1.52400607       1.55076997       0.00134655       0.00317698       0.00107333
V       11.96251430       0.08403030       0.11354765       0.00109537       0.00399123       0.00257387
V       -1.47199939       1.47936174       1.58284640       0.00124433      -0.00018576      -0.00272603
V       -0.00458744       3.04654701       0.01100749       0.00201115       0.00028552       0.00125694
V        1.52375799       4.56098143      -1.52330079       0.00095620       0.00120485      -0.00253748
V        3.03194060       6.05658465      -2.97229702       0.00143937       0.00000594      -0.00190882
V        4.51021158       7.55210022      -4.47738310      -0.00162904       0.00130783      -0.00141354
V       -0.00399412      -0.01228838       3.04049031       0.00342029      -0.00110727      -0.00078861
V        1.46626046       1.52103584       1.54426989       0.00037842       0.00050494       0.00190807
V        2.97203400       2.97337801      -0.06894487      -0.00078722       0.00211552      -0.00062413
V        4.50426078       4.52783404      -1.51830350      -0.00050763       0.00166515       0.00021986
V        5.97170451       6.08899051      -2.99008051      -0.00024733       0.00048455       0.00249127
V        1.50432795      -1.50045718       4.50427362       0.00571140      -0.00041778      -0.00018452
V        3.01222581      -0.02262536       3.02364854       0.00063333       0.00221261      -0.00400916
V        4.57144570       1.51507847       1.56477977      -0.00007067       0.00059374      -0.00024443
V        7.48536514       4.63040168      -1.58438590      -0.00310744      -0.00183774      -0.00029738
V        3.08266102      -2.83592406       5.93301694      -0.00054534       0.00026871      -0.00187873
V        4.51525080      -1.51920368       4.50516099      -0.00111126       0.00294967      -0.00350886
V        6.01364620      -0.04056589       3.04699543       0.00358420      -0.00003169      -0.00334067
V        7.46979892       1.46793135       1.59828614      -0.00577410      -0.00314730       0.00088420
V        6.07994268      -2.98936409       6.00736644       0.00109094       0.00136682      -0.00036940
V        7.58802230      -1.49206863       4.53284854       0.00038762       0.00053924      -0.00029139
V        9.05258795      -0.01208188       3.06531180       0.00062847       0.00247565      -0.00012396
V       10.59321683       1.36749409       1.63380071       0.00294142      -0.00104522      -0.00053226
V       -3.02194640       2.98630105       3.08037648      -0.00176831       0.00194562      -0.00364748
V       -1.49280295       4.53315770       1.54177870       0.00162037       0.00048521      -0.00077365
V        0.01355811       6.07124237      -0.02937867      -0.00008102       0.00007170      -0.00160148
V        1.52112859       7.58284339      -1.54272320       0.00023689      -0.00173747       0.00098207
V       -1.53030587       1.51265682       4.56614024       0.00077663      -0.00199084      -0.00135063
V       -0.03901300       3.02615604       3.06975558       0.00188690      -0.00200594       0.00018529
V        1.49491424       4.54394961       1.45231481       0.00283689      -0.00038727       0.00118220
V        3.01857637       6.10712211      -0.06468934       0.00079977       0.00039457      -0.00213326
V        0.00213995       0.03461776       6.02879857       0.00402645      -0.00084639       0.00249783
V        1.47943083       1.47436479       4.55355398       0.00045565       0.00064629       0.00217672
V        6.02366143       6.12252553      -0.06669840       0.00379296       0.00070843       0.00113465
V        1.52163747      -1.42151579       7.52969652       0.00067670      -0.00539136       0.00107626
V        3.01815620       0.01639728       6.02716163      -0.00035844      -0.00236454      -0.00032349
V        4.55327332       1.49496037       4.54590729       0.00074375      -0.00064546      -0.00067829
V        7.46923201       4.56944713       1.57961327      -0.00626957      -0.00056232       0.00136752
V        3.12692256      -2.86356912       9.22684628      -0.00666122       0.00339844      -0.00050578
V        4.55518882      -1.48944620       7.55627408      -0.00422072      -0.00277164       0.00095057
V        6.05934429      -0.01484262       6.04553337      -0.00437189       0.00245172       0.00251292
V        7.51332481       1.52073399       4.51636610       0.00259460       0.00276878       0.00204975
V        9.11253047       2.95926674       3.09058506       0.00240124       0.00049501       0.00157000
V       -4.53874729       4.49896284       4.55256042       0.00038004       0.00076872       0.00029406
V       -3.04638743       6.06744454       3.05275909       0.00049402       0.00007299      -0.00261562
V       -1.52310499       7.57122258       1.46985337       0.00116579      -0.00055464      -0.00133676
V       -0.02166868       9.02415206      -0.04835713      -0.00413334      -0.00104195       0.00058999
V        1.52592512      10.52861077      -1.55791427       0.00316334       0.00043172       0.00070089
V       -3.03415202       3.00928539       6.01961874       0.00058865      -0.00243271      -0.00178996
V       -1.54133769       4.48300275       4.56607485      -0.00125359      -0.00233227      -0.00437422
V        1.50518580       7.56974480       1.45762805      -0.00031320      -0.00176793      -0.00291583
V        3.09651840       8.99157869      -0.05861347       0.00110645      -0.00235860       0.00137894
V       -1.55044599       1.50367411       7.51089195       0.00179617       0.00293166       0.00004084
V       -0.00752433       3.01334623       6.01284411      -0.00224501      -0.00155838       0.00098414
V        2.92328703       5.99984658       3.01286767       0.00023266       0.00261296       0.00290710
V        4.53164702       7.53241613       1.49755648      -0.00119854       0.00395533       0.00271001
V        0.00779429       0.01904256       9.00390355      -0.00314162       0.00067466       0.00026633
V        1.49478784       1.47169113       7.50902993      -0.00139808      -0.00125127       0.00037378
V        3.02293230       2.99718212       6.04208858      -0.00178611       0.00058121       0.00091232
V        4.52753171       4.42735124       4.46222755      -0.00290698      -0.00068937      -0.00099217
V        6.15976012       6.03229943       2.95155271      -0.00041453       0.00271525      -0.00655072
V        1.54078948      -1.49101452      10.60682710      -0.00279748      -0.00062556       0.00126887
V        3.04565238       0.00174276       9.01886896       0.00102587      -0.00315152       0.00077689
V        4.54470456       1.50279044       7.54757364      -0.00061355      -0.00042858      -0.00090086
V        6.03740067       2.97411854       6.07539215       0.00022334      -0.00400613       0.00047599
V        7.58692500       4.40144965       4.47782606       0.00307215      -0.00478423      -0.00364429
V       -5.97770962       6.00952267       5.99460882       0.00246446       0.00108809      -0.00418534
V       -3.00588362       9.04175670       3.02591698       0.00098672      -0.00169561       0.00066975
V       -1.51579776      10.55113523       1.51902348      -0.00105341      -0.00389628       0.00203357
V        0.06855562      12.01137697       0.02785615       0.00169121       0.00101917       0.00560279
V       -4.48316499       4.55956211       7.48718997      -0.00049798       0.00568805      -0.00110118
V       -3.01592250       6.01718161       5.99754075      -0.00002421       0.00064616      -0.00261560
V       -1.54485343       7.53787395       4.53295835       0.00211601      -0.00074256       0.00123506
V       -0.05643125       9.06176961       3.02357748       0.00169000       0.00111331       0.00167752
V       -3.02235598       3.03400732       9.03862747       0.00017589       0.00019698      -0.00035972
V       -1.55772584       4.51923036       7.54300563      -0.00185419      -0.00392421      -0.00037030
V       -0.01945675       6.02043499       6.04783334      -0.00032657      -0.00131057       0.00040007
V        1.48627226       7.55276112       4.52838829       0.00228183       0.00034217       0.00103937
V        3.00010356       9.04528449       2.97609257       0.00008432       0.00070532       0.00125475
V       -1.49020142       1.58942779      10.47645583      -0.00339005       0.00132383       0.00219830
V       -0.03543571       3.02868280       9.01626081       0.00074100       0.00007054       0.00238591
V        2.93030644       5.97472148       6.01436682      -0.00230857       0.00063740       0.00090236
V        0.09023949       0.07454169      12.03794299      -0.00000695      -0.00100445      -0.00126066
V        3.04138227       3.01554497       9.07365891      -0.00077999      -0.00066782      -0.00180322
V        4.50423074       4.43443547       7.64875787      -0.00103917      -0.00124543       0.00154228
W        6.03577357       2.99252967      -0.04341319      -0.00356241      -0.00073306      -0.00035641
W        2.96323322       2.99325950       3.04802799       0.00018696      -0.00015665       0.00327396
W       -0.00882337       6.02600223       3.02627320       0.00137208      -0.00005498      -0.00005560
W        1.48719045       4.51161875       7.56183060       0.00002178       0.00170641       0.00001241
W        1.54508431       1.52449776      10.55775867      -0.00166258      -0.00269406      -0.00012984
Zr       9.11952954       3.09378746       0.03233227      -0.00452195      -0.00427533      -0.00064822
Zr       6.03765981       6.06366480       6.11377680       0.00288758      -0.00816416       0.00124920
