 vasp.6.4.2 20Jul23 (build Sep 20 2024 16:56:05) complex                         
 executed on              LinuxNV date 2025.02.09  18:35:01
 running    4 mpi-ranks, with    8 threads/rank, on    1 nodes
 distrk:  each k-point on    4 cores,    1 groups
 distr:  one band on NCORE=   1 cores,    4 groups
 OpenACC runtime initialized ...    4 GPUs detected


--------------------------------------------------------------------------------------------------------


 INCAR:
   PREC = Accurate
   ENCUT = 520
   EDIFF = 1e-06
   ISMEAR = 1
   SIGMA = 0.2
   NSW = 0
   IBRION = -1
   LWAVE = .FALSE.
   LCHARG = .TRUE.
   LREAL = .FALSE.
   ALGO = Normal

 POTCAR:    PAW_PBE V_pv 07Sep2000                
 POTCAR:    PAW_PBE Cr_pv 02Aug2007               
 POTCAR:    PAW_PBE Ti_pv 07Sep2000               
 POTCAR:    PAW_PBE V_pv 07Sep2000                
   SHA256 =  1175d3c8cb4ffd1d150a520fa74fae5c3ec72c0849b5615a94a5372dd2cf07f7 V_pv/POTCAR           
   COPYR  = (c) Copyright 07Sep2000 Georg Kresse                                                    
   COPYR  = This file is part of the software VASP. Any use, copying, and all other rights are regul
   COPYR  = If you do not have a valid VASP license, you may not use, copy or distribute this file. 
   VRHFIN =V: p6 d4 s1                                                                              
   LEXCH  = PE                                                                                      
   EATOM  =  1321.6206 eV,   97.1364 Ry                                                             
                                                                                                    
   TITEL  = PAW_PBE V_pv 07Sep2000                                                                  
   LULTRA =        F    use ultrasoft PP ?                                                          
   IUNSCR =        1    unscreen: 0-lin 1-nonlin 2-no                                               
   RPACOR =    1.700    partial core radius                                                         
   POMASS =   50.941; ZVAL   =   11.000    mass and valenz                                          
   RCORE  =    2.300    outmost cutoff radius                                                       
   RWIGS  =    2.300; RWIGS  =    1.217    wigner-seitz radius (au A)                               
   ENMAX  =  263.673; ENMIN  =  197.755 eV                                                          
   RCLOC  =    1.779    cutoff for local pot                                                        
   LCOR   =        T    correct aug charges                                                         
   LPAW   =        T    paw PP                                                                      
   EAUG   =  598.473                                                                                
   DEXC   =    0.000                                                                                
   RMAX   =    2.359    core radius for proj-oper                                                   
   RAUG   =    1.300    factor for augmentation sphere                                              
   RDEP   =    2.430    radius for radial grids                                                     
   RDEPT  =    1.700    core radius for aug-charge                                                  
                                                                                                    
   Atomic configuration                                                                             
    8 entries                                                                                       
     n  l   j            E        occ.                                                              
     1  0  0.50     -5360.7193   2.0000                                                             
     2  0  0.50      -598.4546   2.0000                                                             
     2  1  1.50      -499.0155   6.0000                                                             
     3  0  0.50       -66.5711   2.0000                                                             
     3  1  1.50       -40.5282   6.0000                                                             
     3  2  2.50        -2.4291   4.0000                                                             
     4  0  0.50        -3.8743   1.0000                                                             
     4  3  2.50        -1.3606   0.0000                                                             
   Description                                                                                      
     l       E           TYP  RCUT    TYP  RCUT                                                     
     1    -40.5282431     23  2.000                                                                 
     1      5.4423304     23  2.000                                                                 
     2     -2.4290905     23  2.300                                                                 
     2     -1.0472488     23  2.300                                                                 
     0     -3.8742754     23  2.300                                                                 
     0     27.2116520     23  2.300                                                                 
  local pseudopotential read in
  partial core-charges read in
  partial kinetic energy density read in
  atomic valenz-charges read in
  non local Contribution for L=            1  read in
    real space projection operators read in
  non local Contribution for L=            1  read in
    real space projection operators read in
  non local Contribution for L=            2  read in
    real space projection operators read in
  non local Contribution for L=            2  read in
    real space projection operators read in
  non local Contribution for L=            0  read in
    real space projection operators read in
  non local Contribution for L=            0  read in
    real space projection operators read in
    PAW grid and wavefunctions read in
 
   number of l-projection  operators is LMAX  =            6
   number of lm-projection operators is LMMAX =           18
 
 POTCAR:    PAW_PBE Cr_pv 02Aug2007               
   SHA256 =  c9a7df34d3cdbacf1090e328ef39c0b420964e11c23f63548d1ac9dd218cdba0 Cr_pv/POTCAR          
   COPYR  = (c) Copyright 02Aug2007 Georg Kresse                                                    
   COPYR  = This file is part of the software VASP. Any use, copying, and all other rights are regul
   COPYR  = If you do not have a valid VASP license, you may not use, copy or distribute this file. 
   VRHFIN =Cr : p6d5s1                                                                              
   LEXCH  = PE                                                                                      
   EATOM  =  1647.9177 eV,  121.1185 Ry                                                             
                                                                                                    
   TITEL  = PAW_PBE Cr_pv 02Aug2007                                                                 
   LULTRA =        F    use ultrasoft PP ?                                                          
   IUNSCR =        1    unscreen: 0-lin 1-nonlin 2-no                                               
   RPACOR =    2.080    partial core radius                                                         
   POMASS =   51.996; ZVAL   =   12.000    mass and valenz                                          
   RCORE  =    2.300    outmost cutoff radius                                                       
   RWIGS  =    2.500; RWIGS  =    1.323    wigner-seitz radius (au A)                               
   ENMAX  =  265.681; ENMIN  =  199.261 eV                                                          
   ICORE  =        3    local potential                                                             
   LCOR   =        T    correct aug charges                                                         
   LPAW   =        T    paw PP                                                                      
   EAUG   =  519.424                                                                                
   DEXC   =    0.000                                                                                
   RMAX   =    2.356    core radius for proj-oper                                                   
   RAUG   =    1.300    factor for augmentation sphere                                              
   RDEP   =    2.447    radius for radial grids                                                     
   RDEPT  =    1.882    core radius for aug-charge                                                  
                                                                                                    
   Atomic configuration                                                                             
    8 entries                                                                                       
     n  l   j            E        occ.                                                              
     1  0  0.50     -5880.4963   2.0000                                                             
     2  0  0.50      -667.0865   2.0000                                                             
     2  1  1.50      -560.6250   6.0000                                                             
     3  0  0.50       -73.9860   2.0000                                                             
     3  1  1.50       -45.4378   6.0000                                                             
     3  2  2.50        -2.9137   5.0000                                                             
     4  0  0.50        -4.0071   1.0000                                                             
     4  3  2.50        -1.3606   0.0000                                                             
   Description                                                                                      
     l       E           TYP  RCUT    TYP  RCUT                                                     
     1    -45.4377911     23  2.000                                                                 
     1      1.3605826     23  2.000                                                                 
     2     -2.9136672     23  2.300                                                                 
     2     -4.2742498     23  2.300                                                                 
     0     -4.0071320     23  2.300                                                                 
     0      9.4498803     23  2.300                                                                 
     3      2.7211652     23  2.300                                                                 
  local pseudopotential read in
  partial core-charges read in
  partial kinetic energy density read in
  atomic valenz-charges read in
  non local Contribution for L=            1  read in
    real space projection operators read in
  non local Contribution for L=            1  read in
    real space projection operators read in
  non local Contribution for L=            2  read in
    real space projection operators read in
  non local Contribution for L=            2  read in
    real space projection operators read in
  non local Contribution for L=            0  read in
    real space projection operators read in
  non local Contribution for L=            0  read in
    real space projection operators read in
    PAW grid and wavefunctions read in
 
   number of l-projection  operators is LMAX  =            6
   number of lm-projection operators is LMMAX =           18
 
 POTCAR:    PAW_PBE Ti_pv 07Sep2000               
   SHA256 =  f757a1b2c6d082f4c628fa3d987464a8763bf92e53844ac0500b0e2ddc9ce5c0 Ti_pv/POTCAR          
   COPYR  = (c) Copyright 07Sep2000 Georg Kresse                                                    
   COPYR  = This file is part of the software VASP. Any use, copying, and all other rights are regul
   COPYR  = If you do not have a valid VASP license, you may not use, copy or distribute this file. 
   VRHFIN =Ti: d3 s1                                                                                
   LEXCH  = PE                                                                                      
   EATOM  =  1042.5995 eV,   76.6289 Ry                                                             
                                                                                                    
   TITEL  = PAW_PBE Ti_pv 07Sep2000                                                                 
   LULTRA =        F    use ultrasoft PP ?                                                          
   IUNSCR =        1    unscreen: 0-lin 1-nonlin 2-no                                               
   RPACOR =    2.200    partial core radius                                                         
   POMASS =   47.880; ZVAL   =   10.000    mass and valenz                                          
   RCORE  =    2.500    outmost cutoff radius                                                       
   RWIGS  =    2.500; RWIGS  =    1.323    wigner-seitz radius (au A)                               
   ENMAX  =  222.335; ENMIN  =  166.751 eV                                                          
   RCLOC  =    1.701    cutoff for local pot                                                        
   LCOR   =        T    correct aug charges                                                         
   LPAW   =        T    paw PP                                                                      
   EAUG   =  482.848                                                                                
   DEXC   =    0.000                                                                                
   RMAX   =    2.564    core radius for proj-oper                                                   
   RAUG   =    1.300    factor for augmentation sphere                                              
   RDEP   =    2.538    radius for radial grids                                                     
   RDEPT  =    1.952    core radius for aug-charge                                                  
                                                                                                    
   Atomic configuration                                                                             
    8 entries                                                                                       
     n  l   j            E        occ.                                                              
     1  0  0.50     -4865.3608   2.0000                                                             
     2  0  0.50      -533.1368   2.0000                                                             
     2  1  1.50      -440.5031   6.0000                                                             
     3  0  0.50       -59.3186   2.0000                                                             
     3  1  1.50       -35.7012   6.0000                                                             
     3  2  2.50        -1.9157   3.0000                                                             
     4  0  0.50        -3.7291   1.0000                                                             
     4  3  2.50        -1.3606   0.0000                                                             
   Description                                                                                      
     l       E           TYP  RCUT    TYP  RCUT                                                     
     1    -35.7012140     23  2.300                                                                 
     1     -1.3605826     23  2.300                                                                 
     2     -1.9156996     23  2.500                                                                 
     2     -0.4063033     23  2.500                                                                 
     0     -3.7290856     23  2.500                                                                 
     0     20.4087390     23  2.500                                                                 
  local pseudopotential read in
  partial core-charges read in
  partial kinetic energy density read in
  atomic valenz-charges read in
  non local Contribution for L=            1  read in
    real space projection operators read in
  non local Contribution for L=            1  read in
    real space projection operators read in
  non local Contribution for L=            2  read in
    real space projection operators read in
  non local Contribution for L=            2  read in
    real space projection operators read in
  non local Contribution for L=            0  read in
    real space projection operators read in
  non local Contribution for L=            0  read in
    real space projection operators read in
    PAW grid and wavefunctions read in
 
   number of l-projection  operators is LMAX  =            6
   number of lm-projection operators is LMMAX =           18
 
 -----------------------------------------------------------------------------
|                                                                             |
|               ----> ADVICE to this user running VASP <----                  |
|                                                                             |
|     You have a (more or less) 'large supercell' and for larger cells it     |
|     might be more efficient to use real-space projection operators.         |
|     Therefore, try LREAL= Auto in the INCAR file.                           |
|     Mind: For very accurate calculation, you might also keep the            |
|     reciprocal projection scheme (i.e. LREAL=.FALSE.).                      |
|                                                                             |
 -----------------------------------------------------------------------------

  PAW_PBE V_pv 07Sep2000                :
 energy of atom  1       EATOM=-1321.6206
 kinetic energy error for atom=    0.0054 (will be added to EATOM!!)
  PAW_PBE Cr_pv 02Aug2007               :
 energy of atom  2       EATOM=-1647.9177
 kinetic energy error for atom=    0.0057 (will be added to EATOM!!)
  PAW_PBE Ti_pv 07Sep2000               :
 energy of atom  3       EATOM=-1042.5995
 kinetic energy error for atom=    0.0019 (will be added to EATOM!!)
 
 
 POSCAR: V  Cr Ti
  positions in direct lattice
  velocities in cartesian coordinates
 exchange correlation table for  LEXCH =        8
   RHO(1)=    0.500       N(1)  =     2000
   RHO(2)=  100.500       N(2)  =     4000
 


--------------------------------------------------------------------------------------------------------


 ion  position               nearest neighbor table
   1  0.006  0.005  0.005-   2 2.53 115 2.54  28 2.56  22 2.57   5 2.59  24 2.59 114 2.60  95 2.61
                           118 2.95
   2  0.996  0.001  0.195- 110 2.53  96 2.53   1 2.53   6 2.53  29 2.59  23 2.59   3 2.61  18 2.61

   3  0.012  0.001  0.400- 111 2.61  30 2.61   2 2.61   7 2.62  19 2.62   4 2.63  97 2.71  18 2.83
                            29 2.83  25 2.87
   4  0.004  0.000  0.599-  25 2.55  98 2.56  20 2.57   8 2.58 112 2.59  31 2.59   3 2.63   5 2.66
                           116 3.01
   5  0.002  0.005  0.804- 116 2.51 118 2.52  27 2.58   1 2.59  21 2.61  26 2.61 113 2.63   4 2.66
                            98 2.88 115 2.95
   6  0.006  0.202  0.201-   2 2.53 115 2.54  28 2.56  34 2.56   9 2.59   7 2.59  99 2.60  95 2.61
                           119 2.95
   7  0.003  0.199  0.399- 100 2.58  96 2.58  29 2.59  35 2.59   6 2.59   3 2.62  10 2.62   8 2.63

   8  0.004  0.199  0.601-  30 2.49   4 2.58  97 2.58 116 2.62  11 2.62  36 2.62   7 2.63 122 2.67

   9  0.002  0.398  0.197- 117 2.51 119 2.52  33 2.58   6 2.59  10 2.61  39 2.61 102 2.63  14 2.66
                           101 2.88 115 2.95
  10  0.003  0.402  0.400-  34 2.57  15 2.59  40 2.59 103 2.60   9 2.61  99 2.62  11 2.62   7 2.62

  11  0.002  0.400  0.600-  35 2.58  41 2.60 104 2.60 100 2.61   8 2.62  10 2.62  16 2.63  12 2.68
                           122 3.00
  12  0.009  0.400  0.809-  37 2.54  36 2.54 117 2.58 116 2.58  11 2.68  17 2.68 124 2.70 122 2.70
                            32 2.88 123 3.00
  13  0.004  0.603  0.005-  43 2.49  14 2.58 105 2.58 117 2.62  17 2.62  37 2.62  24 2.63 124 2.67

  14  0.004  0.605  0.204-  44 2.55 101 2.56  15 2.57  13 2.58 106 2.59  38 2.59  18 2.63   9 2.66
                           117 3.01
  15  0.004  0.601  0.401-  19 2.55  14 2.57  39 2.57  45 2.58 102 2.59  10 2.59  16 2.60 107 2.63

  16  0.003  0.602  0.601-  46 2.59  40 2.59  15 2.60  20 2.60 103 2.61 108 2.61  17 2.63  11 2.63
                           104 2.91
  17  0.002  0.602  0.802-  42 2.58  41 2.60 104 2.60 109 2.61  13 2.62  21 2.62  16 2.63  12 2.68
                           124 3.00
  18  0.012  0.812  0.211-  43 2.61 111 2.61   2 2.61  24 2.62  19 2.62  14 2.63 105 2.71   3 2.83
                            23 2.83  44 2.87
  19  0.995  0.795  0.401-  20 2.55  15 2.55 106 2.55 112 2.55  25 2.61  44 2.61  18 2.62   3 2.62
                           107 2.90
  20  0.003  0.803  0.602-  19 2.55   4 2.57  26 2.57  45 2.58 113 2.59  21 2.59  16 2.60 107 2.63

  21  0.003  0.804  0.802-  22 2.57  20 2.59  46 2.59 108 2.60   5 2.61 114 2.62  17 2.62  24 2.62

  22  0.201  0.001  0.001-   1 2.57  42 2.57  21 2.57  53 2.57  27 2.58  47 2.59  26 2.59  23 2.71

  23  0.199  0.001  0.209-  24 2.59  28 2.59   2 2.59  54 2.62  43 2.62  48 2.63  22 2.71  49 2.81
                            18 2.83  29 2.85
  24  0.003  0.804  0.004- 109 2.58 110 2.58  23 2.59  42 2.59   1 2.59  18 2.62  21 2.62  13 2.63

  25  0.199  0.000  0.594-  50 2.53   4 2.55  56 2.61  19 2.61  45 2.62  30 2.64  26 2.69  55 2.86
                             3 2.87
  26  0.201  0.001  0.801-  20 2.57  52 2.59  22 2.59  46 2.60  51 2.60  31 2.60   5 2.61  25 2.69

  27  0.201  0.201  0.005- 115 2.54  58 2.58   5 2.58  22 2.58  28 2.59  32 2.59  31 2.60  52 2.60
                           116 2.94
  28  0.203  0.200  0.204-   1 2.56   6 2.56  53 2.58  59 2.58  27 2.59  33 2.59  29 2.59  23 2.59
                            54 2.91 115 3.00
  29  0.199  0.191  0.399-   7 2.59  28 2.59   2 2.59  54 2.62  30 2.62  60 2.63  34 2.71  55 2.81
                             3 2.83  23 2.85
  30  0.200  0.207  0.605-   8 2.49  55 2.54  35 2.55  61 2.57   3 2.61  31 2.61  29 2.62  25 2.64

  31  0.196  0.201  0.803- 116 2.43  56 2.58   4 2.59  27 2.60  26 2.60  30 2.61  57 2.62  36 2.62

  32  0.198  0.398  0.000- 116 2.51 117 2.51  33 2.59  27 2.59  63 2.61  57 2.61  36 2.63  37 2.63
                            12 2.88 115 2.95
  33  0.201  0.397  0.200- 115 2.54  58 2.58   9 2.58  34 2.58  28 2.59  32 2.59  38 2.60  64 2.60
                           117 2.94
  34  0.201  0.400  0.400-   6 2.56  35 2.57  10 2.57  59 2.57  33 2.58  65 2.59  39 2.59  29 2.71

  35  0.200  0.401  0.598-  30 2.55  34 2.57  60 2.58  40 2.58  11 2.58   7 2.59  66 2.62  36 2.63

  36  0.203  0.404  0.802-  12 2.54  41 2.58  62 2.58  61 2.59  31 2.62   8 2.62  32 2.63  35 2.63
                           116 2.99
  37  0.203  0.601  0.999-  12 2.54  41 2.58  62 2.58  68 2.59  38 2.62  13 2.62  32 2.63  42 2.63
                           117 2.99
  38  0.196  0.594  0.196- 117 2.43  69 2.58  14 2.59  33 2.60  39 2.60  43 2.61  63 2.62  37 2.62

  39  0.201  0.599  0.400-  15 2.57  64 2.59  34 2.59  40 2.60  70 2.60  38 2.60   9 2.61  44 2.69

  40  0.202  0.601  0.600-  65 2.58  35 2.58  16 2.59  10 2.59  71 2.59  41 2.60  39 2.60  45 2.61

  41  0.201  0.601  0.800-  37 2.58  36 2.58  67 2.60  66 2.60  40 2.60  46 2.60  11 2.60  17 2.60

  42  0.200  0.802  0.999-  43 2.55  22 2.57  48 2.58  46 2.58  17 2.58  24 2.59  67 2.62  37 2.63

  43  0.200  0.795  0.193-  13 2.49  49 2.54  42 2.55  68 2.57  18 2.61  38 2.61  23 2.62  44 2.64

  44  0.199  0.805  0.399-  50 2.53  14 2.55  69 2.61  19 2.61  45 2.62  43 2.64  39 2.69  49 2.86
                            18 2.87
  45  0.201  0.801  0.600-  15 2.58  20 2.58  51 2.61  70 2.61  46 2.61  40 2.61  44 2.62  25 2.62
                            50 2.89
  46  0.202  0.802  0.801-  47 2.58  42 2.58  16 2.59  21 2.59  71 2.60  41 2.60  26 2.60  45 2.61

  47  0.399  0.000  0.999-  46 2.58  22 2.59  51 2.59  52 2.60  48 2.60  72 2.60  77 2.60  67 2.61

  48  0.398  1.000  0.199-  42 2.58  53 2.60  47 2.60  78 2.60  49 2.60  68 2.61  23 2.63  73 2.65

  49  0.384  0.995  0.392-  79 2.51  43 2.54  48 2.60  50 2.65  69 2.66  54 2.66  74 2.76  23 2.81
                            44 2.86
  50  0.393  0.994  0.599-  44 2.53  25 2.53  51 2.55  70 2.55 121 2.64 120 2.64  49 2.65  55 2.65
                            45 2.89
  51  0.401  0.002  0.801-  50 2.55  47 2.59  26 2.60  56 2.60  45 2.61  71 2.61  76 2.62  75 2.69
                           121 3.01
  52  0.400  0.201  0.001-  53 2.56  56 2.58  26 2.59  81 2.59  47 2.60  57 2.60  27 2.60  76 2.64

  53  0.400  0.200  0.198-  54 2.54  52 2.56  22 2.57  28 2.58  77 2.59  58 2.60  48 2.60  82 2.64

  54  0.405  0.208  0.397-  53 2.54  59 2.54  83 2.59  78 2.59  23 2.62  29 2.62  55 2.66  49 2.66
                            79 2.71  28 2.91
  55  0.384  0.192  0.589-  79 2.51  30 2.54  60 2.60  50 2.65  54 2.66  56 2.66  84 2.76  29 2.81
                            25 2.86
  56  0.394  0.200  0.800-  52 2.58  31 2.58  61 2.58  51 2.60  25 2.61  80 2.64 121 2.66  55 2.66

  57  0.401  0.402  0.002-  58 2.58  62 2.59  86 2.60  52 2.60  61 2.61  32 2.61  31 2.62  80 2.63

  58  0.401  0.401  0.200-  27 2.58  33 2.58  57 2.58  63 2.58  87 2.60  81 2.60  59 2.60  53 2.60

  59  0.400  0.403  0.400-  54 2.54  64 2.56  34 2.57  28 2.58  88 2.59  58 2.60  60 2.60  82 2.64

  60  0.398  0.400  0.599-  35 2.58  59 2.60  65 2.60  83 2.60  55 2.60  61 2.61  29 2.63  89 2.65

  61  0.401  0.402  0.802-  84 2.49  30 2.57  56 2.58  36 2.59  66 2.60  57 2.61  85 2.61  60 2.61

  62  0.403  0.602  0.001-  36 2.58  37 2.58  91 2.59  85 2.59  63 2.59  57 2.59  66 2.60  67 2.60

  63  0.401  0.599  0.199-  58 2.58  62 2.59  86 2.60  64 2.60  68 2.61  32 2.61  38 2.62  92 2.63

  64  0.400  0.599  0.399-  59 2.56  69 2.58  39 2.59  87 2.59  65 2.60  63 2.60  33 2.60  93 2.64

  65  0.400  0.601  0.599-  40 2.58  34 2.59  70 2.59  64 2.60  94 2.60  60 2.60  88 2.60  66 2.61

  66  0.401  0.602  0.801-  41 2.60  62 2.60  89 2.60  71 2.60  61 2.60  90 2.60  65 2.61  35 2.62

  67  0.401  0.800  1.000-  41 2.60  73 2.60  62 2.60  71 2.60  68 2.60  90 2.60  47 2.61  42 2.62

  68  0.401  0.800  0.200-  74 2.49  43 2.57  69 2.58  37 2.59  67 2.60  63 2.61  91 2.61  48 2.61

  69  0.394  0.794  0.394-  38 2.58  64 2.58  68 2.58  70 2.60  44 2.61  92 2.64 120 2.66  49 2.66

  70  0.401  0.801  0.599-  50 2.55  65 2.59  39 2.60  69 2.60  45 2.61  71 2.61  93 2.62  75 2.69
                           120 3.01
  71  0.401  0.802  0.800-  72 2.59  94 2.59  40 2.59  46 2.60  67 2.60  66 2.60  70 2.61  51 2.61

  72  0.600  0.999  0.000-  75 2.54  73 2.56  90 2.59  76 2.59  71 2.59  99 2.60  47 2.60  95 2.63
                           119 3.00
  73  0.602  0.000  0.199-  74 2.51  72 2.56 100 2.59  67 2.60  96 2.60  91 2.60  77 2.62  48 2.65

  74  0.594  0.994  0.387-  68 2.49  73 2.51  92 2.60  78 2.62  97 2.64 120 2.66 122 2.69  49 2.76
                            91 2.91
  75  0.609  0.001  0.809-  72 2.54  94 2.54 119 2.58 118 2.59  70 2.69  51 2.69 120 2.72 121 2.72
                            95 2.87 123 3.00
  76  0.604  0.201  0.004-  77 2.56  72 2.59 102 2.60 119 2.60  80 2.61  51 2.62  52 2.64 121 2.68

  77  0.600  0.201  0.199-  78 2.55  76 2.56  53 2.59  47 2.60  81 2.61 103 2.62  73 2.62  99 2.66

  78  0.601  0.201  0.396-  79 2.50  77 2.55  54 2.59  48 2.60  74 2.62 100 2.63  82 2.64 104 2.64
                           122 3.00
  79  0.575  0.198  0.577-  78 2.50  83 2.50  49 2.51  55 2.51  54 2.71 121 2.74 120 2.74 124 2.81
                           122 2.81
  80  0.602  0.400  0.000-  81 2.58  84 2.60 106 2.60  76 2.61  85 2.62  57 2.63  56 2.64 101 2.67
                           121 2.99
  81  0.600  0.402  0.199-  82 2.57  80 2.58  86 2.59  52 2.59  58 2.60 107 2.60 102 2.61  77 2.61

  82  0.603  0.405  0.398-  81 2.57  87 2.57 108 2.61 103 2.61  83 2.64  78 2.64  53 2.64  59 2.64

  83  0.601  0.406  0.601-  79 2.50  88 2.55  54 2.59  60 2.60  84 2.62 109 2.63  82 2.64 104 2.64
                           124 3.00
  84  0.594  0.407  0.801-  61 2.49  89 2.52  80 2.60  83 2.62 105 2.64 121 2.66 124 2.69  55 2.76
                            85 2.91
  85  0.603  0.603  0.002-  86 2.58  62 2.59  90 2.59  89 2.60  61 2.61 105 2.61  80 2.62 111 2.62
                            84 2.91
  86  0.602  0.602  0.200-  85 2.58  91 2.58  87 2.59  81 2.59  57 2.60  63 2.60 112 2.60 106 2.60

  87  0.600  0.602  0.399-  82 2.57  92 2.58  86 2.59  64 2.59  58 2.60 107 2.60 113 2.61  88 2.61

  88  0.600  0.601  0.599-  83 2.55  93 2.56  59 2.59  65 2.60  87 2.61  89 2.62 108 2.62 114 2.66

  89  0.602  0.604  0.802-  84 2.52  94 2.56 109 2.59  66 2.60 110 2.60  85 2.60  88 2.62  60 2.65

  90  0.603  0.802  0.001-  94 2.59  72 2.59  91 2.59  85 2.59  96 2.60 110 2.60  66 2.60  67 2.60

  91  0.603  0.801  0.200-  86 2.58  62 2.59  90 2.59  73 2.60  68 2.61  97 2.61  92 2.62 111 2.62
                            74 2.91
  92  0.602  0.802  0.402-  87 2.58  74 2.60 112 2.60  93 2.61  91 2.62  63 2.63  69 2.64  98 2.67
                           120 2.99
  93  0.604  0.801  0.603-  88 2.56  94 2.59 113 2.60 118 2.60  92 2.61  70 2.62  64 2.64 120 2.68

  94  0.600  0.800  0.801-  75 2.54  89 2.56  90 2.59  93 2.59  71 2.59 114 2.60  65 2.60  95 2.63
                           118 3.00
  95  0.803  0.004  0.999- 118 2.50 119 2.50   6 2.61   1 2.61  94 2.63  72 2.63  96 2.64 110 2.64
                            75 2.87 115 2.94
  96  0.803  0.001  0.201-   2 2.53   7 2.58 111 2.59  97 2.60  90 2.60  73 2.60  99 2.62  95 2.64

  97  0.804  0.002  0.401- 112 2.57   8 2.58  96 2.60 100 2.61  91 2.61  74 2.64  98 2.68   3 2.71
                           122 3.00
  98  0.811  0.001  0.609- 113 2.53   4 2.56 116 2.58 118 2.58  92 2.67  97 2.68 122 2.70 120 2.72
                             5 2.88 123 3.00
  99  0.804  0.201  0.195- 119 2.43 100 2.60  72 2.60   6 2.60 102 2.61  10 2.62  96 2.62  77 2.66

 100  0.804  0.201  0.395-   7 2.58  73 2.59  99 2.60 103 2.61  11 2.61  97 2.61  78 2.63 122 2.66

 101  0.811  0.402  0.010- 102 2.53  14 2.56 117 2.58 119 2.58  80 2.67 105 2.68 124 2.70 121 2.72
                             9 2.88 123 3.00
 102  0.803  0.403  0.202- 101 2.53 103 2.56  15 2.59  76 2.60 106 2.60  81 2.61  99 2.61   9 2.63
                           119 2.99
 103  0.803  0.402  0.399- 104 2.52 102 2.56 107 2.59  10 2.60 100 2.61  16 2.61  82 2.61  77 2.62

 104  0.803  0.409  0.594- 103 2.52 108 2.52  17 2.60  11 2.60  78 2.64  83 2.64 124 2.70 122 2.70
                            16 2.91
 105  0.804  0.603  0.003- 106 2.57  13 2.58 110 2.60 109 2.61  85 2.61  84 2.64 101 2.68  18 2.71
                           124 3.00
 106  0.802  0.602  0.199-  19 2.55 105 2.57 111 2.59  14 2.59 102 2.60  80 2.60  86 2.60 107 2.62

 107  0.801  0.601  0.400- 108 2.59 103 2.59  81 2.60  87 2.60 106 2.62 112 2.62  20 2.63  15 2.63
                            19 2.90
 108  0.803  0.605  0.601- 104 2.52 113 2.56 107 2.59  21 2.60 109 2.61  16 2.61  82 2.61  88 2.62

 109  0.804  0.609  0.803-  24 2.58  89 2.59 114 2.60 108 2.61  17 2.61 105 2.61  83 2.63 124 2.66

 110  0.803  0.803  0.002-   2 2.53  24 2.58 111 2.59 105 2.60  90 2.60  89 2.60 114 2.62  95 2.64

 111  0.806  0.803  0.203- 112 2.58 106 2.59  96 2.59 110 2.59   3 2.61  18 2.61  91 2.62  85 2.62

 112  0.802  0.803  0.400-  19 2.55  97 2.57 111 2.58   4 2.59 113 2.60  92 2.60  86 2.60 107 2.62

 113  0.803  0.801  0.600-  98 2.53 108 2.56  20 2.59  93 2.60 112 2.60 114 2.61  87 2.61   5 2.63
                           118 2.99
 114  0.804  0.809  0.803- 118 2.43 109 2.60  94 2.60   1 2.60 113 2.61  21 2.62 110 2.62  88 2.66

 115  0.005  0.201  0.005-  33 2.54  27 2.54   6 2.54   1 2.54 118 2.61 119 2.61 116 2.62 117 2.62
                           123 2.78  95 2.94   5 2.95   9 2.95  32 2.95  28 3.00
 116  0.010  0.201  0.805-  31 2.43   5 2.51  32 2.51 123 2.53  98 2.58  12 2.58 115 2.62   8 2.62
                            27 2.94  36 2.99   4 3.01 118 3.05 117 3.06 122 3.16
 117  0.010  0.405  0.009-  38 2.43   9 2.51  32 2.51 123 2.53 101 2.58  12 2.58  13 2.62 115 2.62
                            33 2.94  37 2.99  14 3.01 119 3.05 116 3.06 124 3.16
 118  0.806  0.998  0.805- 114 2.43  95 2.50   5 2.52 123 2.52  98 2.58  75 2.59  93 2.60 115 2.61
                             1 2.95 113 2.99  94 3.00 116 3.05 119 3.05 120 3.17
 119  0.806  0.201  0.009-  99 2.43  95 2.50   9 2.52 123 2.52 101 2.58  75 2.58  76 2.60 115 2.61
                             6 2.95 102 2.99  72 3.00 117 3.05 118 3.05 121 3.17
 120  0.598  0.002  0.596-  50 2.64  69 2.66  74 2.66  93 2.68  98 2.72  75 2.72  79 2.74 123 2.81
                           122 2.97  92 2.99 121 3.00  70 3.01 118 3.17
 121  0.598  0.202  0.796-  50 2.64  56 2.66  84 2.66  76 2.68 101 2.72  75 2.72  79 2.74 123 2.81
                           124 2.97  80 2.99 120 3.00  51 3.01 119 3.17
 122  0.798  0.200  0.597- 100 2.66   8 2.67  74 2.69 104 2.70  98 2.70  12 2.70  79 2.81 123 2.81
                           120 2.97  78 3.00  11 3.00  97 3.00 124 3.00 116 3.16
 123  0.821  0.201  0.820- 119 2.52 118 2.52 117 2.53 116 2.53 115 2.78 122 2.81 124 2.81 120 2.81
                           121 2.81  75 3.00  12 3.00 101 3.00  98 3.00
 124  0.798  0.401  0.798- 109 2.66  13 2.67  84 2.69 104 2.70 101 2.70  12 2.70  79 2.81 123 2.81
                           121 2.97  83 3.00  17 3.00 105 3.00 122 3.00 117 3.16
 
  LATTYP: Found a base centered monoclinic cell.
 ALAT       =    15.0482117230
 B/A-ratio  =     1.4081981607
 C/A-ratio  =     1.6569313785
 COS(beta)  =    -0.9052205732
  
  Lattice vectors:
  
 A1 = (   4.3071057600,   6.1309426610, -10.6177469370)
 A2 = ( -12.9951470410,   0.0135483230,  -0.0223585750)
 A3 = (  13.0316404910,  -0.0404660660,  21.2572762500)


Analysis of symmetry for initial positions (statically):
=====================================================================
 Subroutine PRICEL returns:
 Original cell was already a primitive cell.
 

 Routine SETGRP: Setting up the symmetry group for a 
 base centered monoclinic supercell.


 Subroutine GETGRP returns: Found  1 space group operations
 (whereof  1 operations were pure point group operations)
 out of a pool of  4 trial point group operations.


The static configuration has the point symmetry C_1 .


Analysis of symmetry for dynamics (positions and initial velocities):
=====================================================================
 Subroutine PRICEL returns:
 Original cell was already a primitive cell.
 

 Routine SETGRP: Setting up the symmetry group for a 
 base centered monoclinic supercell.


 Subroutine GETGRP returns: Found  1 space group operations
 (whereof  1 operations were pure point group operations)
 out of a pool of  4 trial point group operations.


The dynamic configuration has the point symmetry C_1 .


 Subroutine INISYM returns: Found  1 space group operations
 (whereof  1 operations are pure point group operations),
 and found     1 'primitive' translations


----------------------------------------------------------------------------------------

                                     Primitive cell                                     

  volume of cell :    1689.3617

  direct lattice vectors                    reciprocal lattice vectors
    12.995147041 -0.013548323  0.022358575     0.076899476  0.027363571  0.046994778
    -4.344442071 12.248515902 -0.022934774     0.000004010  0.081732338  0.047195846
    -4.307105760 -6.130942661 10.617746937    -0.000161924  0.000118924  0.094184924

  length of vectors
    12.995173338 12.996185776 12.995236356     0.094184943  0.094380205  0.094185138

  position of ions in fractional coordinates (direct lattice)
     0.006099993  0.005141977  0.004659493
     0.995808270  0.001467109  0.194695719
     0.011872142  0.001130148  0.399922161
     0.003825857  0.000102117  0.598836468
     0.001577978  0.004663605  0.803916334
     0.006107222  0.201823297  0.201331326
     0.002934588  0.199320943  0.398926821
     0.003749456  0.199002635  0.601101804
     0.001577075  0.398050253  0.197301917
     0.003103560  0.401605606  0.399664004
     0.001692596  0.399630632  0.600379995
     0.008908194  0.400461580  0.808864273
     0.003750949  0.603030055  0.005122226
     0.003830431  0.605379361  0.204104001
     0.003508697  0.601481807  0.400719584
     0.003133838  0.602465639  0.601048720
     0.001677373  0.601695389  0.802435737
     0.011866460  0.812315657  0.211117019
     0.995358829  0.794808360  0.400948510
     0.003486997  0.803170197  0.602395037
     0.003079913  0.803815935  0.801865443
     0.200898473  0.000990780  0.001133841
     0.199412509  0.000677732  0.208817019
     0.002946984  0.804387866  0.003999664
     0.198723623  0.000374526  0.593646494
     0.200594406  0.001289735  0.801496309
     0.200711973  0.200863058  0.004526606
     0.203348357  0.199661691  0.204046612
     0.199409543  0.190967254  0.399096241
     0.199788646  0.207309258  0.605462682
     0.196146071  0.200651319  0.802999484
     0.197710476  0.397671863  0.000394159
     0.200707997  0.396560775  0.200209257
     0.200915200  0.400149752  0.400280056
     0.200197253  0.401321295  0.598096608
     0.202988987  0.404288082  0.802234043
     0.203010857  0.601137542  0.999082246
     0.196148701  0.593519886  0.195856576
     0.200618477  0.599483034  0.399681347
     0.201569618  0.601004749  0.600417626
     0.200828352  0.601118804  0.800101839
     0.200198832  0.802475982  0.999267393
     0.199790510  0.794716668  0.192865462
     0.198729000  0.805453982  0.398716575
     0.200775140  0.801312863  0.599843069
     0.201541398  0.801521694  0.800939230
     0.399496776  0.000456661  0.999123223
     0.398186106  0.999750541  0.198552001
     0.383905810  0.995169483  0.392405700
     0.392775073  0.994165809  0.598993386
     0.400645136  0.002376318  0.800509895
     0.399754058  0.201035885  0.000828182
     0.399848587  0.200008717  0.197628237
     0.405167387  0.208078748  0.397477590
     0.383916793  0.191894044  0.589119609
     0.393679695  0.200068979  0.799788894
     0.400649583  0.401695709  0.001723844
     0.400664285  0.400960095  0.200069785
     0.399853451  0.402606397  0.400215631
     0.398179873  0.400009367  0.598803874
     0.401335794  0.402007032  0.801540123
     0.402577920  0.601654200  0.001266481
     0.400645774  0.599285473  0.199310619
     0.399756100  0.599299418  0.399080217
     0.399519503  0.600777145  0.599425448
     0.401243471  0.602069089  0.801179917
     0.401253220  0.800425204  0.999541911
     0.401351205  0.800160259  0.199698786
     0.393689437  0.794271373  0.393972943
     0.400650339  0.800529484  0.598650454
     0.400827000  0.801552171  0.799649368
     0.599730816  0.999492865  0.000397933
     0.601972774  0.000176896  0.198506693
     0.594043339  0.993844561  0.387173100
     0.609470005  0.001216334  0.808649736
     0.603998557  0.201031940  0.003753979
     0.600089241  0.201173316  0.199178177
     0.601214791  0.200567351  0.395623329
     0.574587961  0.197961669  0.576995847
     0.601649877  0.400098771  0.000224507
     0.600224686  0.401697748  0.198628795
     0.602916712  0.404850971  0.398442564
     0.601212718  0.405981155  0.601032324
     0.594044675  0.407241790  0.800572113
     0.602640797  0.602530348  0.002130546
     0.601820906  0.601780819  0.200401408
     0.600212275  0.601960776  0.398897751
     0.600102401  0.601301691  0.599308000
     0.601965131  0.603829049  0.802149709
     0.602635448  0.801806995  0.001175607
     0.602647516  0.800866931  0.200470375
     0.601649375  0.801790739  0.401928039
     0.603991948  0.800641357  0.603347323
     0.599752046  0.799724869  0.800619075
     0.803135782  0.004483929  0.999032925
     0.803243899  0.001167713  0.200997612
     0.804210126  0.002005148  0.401423458
     0.810644865  0.001373464  0.609209953
     0.803574889  0.200925159  0.195039687
     0.803786102  0.200716301  0.395066174
     0.810646706  0.401845183  0.009672126
     0.802537034  0.403418549  0.202342025
     0.803356961  0.402377585  0.398892483
     0.802761594  0.408692591  0.594433673
     0.804199933  0.603161138  0.002585710
     0.801860549  0.602030244  0.198980554
     0.800581076  0.601229426  0.399737926
     0.803357111  0.604848247  0.601365310
     0.803782823  0.609096531  0.803446845
     0.803246335  0.802614160  0.002445337
     0.805715831  0.803438684  0.202669331
     0.801861431  0.803260731  0.400213483
     0.802529808  0.800591057  0.599502549
     0.803582750  0.808920619  0.803032355
     0.005345580  0.200747838  0.004979652
     0.009828916  0.201011188  0.805156216
     0.009832011  0.405068295  0.009204589
     0.805987031  0.997589006  0.805103699
     0.805981120  0.201274064  0.008796058
     0.597835551  0.002186033  0.596151808
     0.597837238  0.202072901  0.796039622
     0.797608208  0.200350229  0.597185445
     0.820563464  0.200772442  0.820199883
     0.797609942  0.400802655  0.797630634

  ion indices of the primitive-cell ions
   primitive index   ion index
                 1           1
                 2           2
                 3           3
                 4           4
                 5           5
                 6           6
                 7           7
                 8           8
                 9           9
                10          10
                11          11
                12          12
                13          13
                14          14
                15          15
                16          16
                17          17
                18          18
                19          19
                20          20
                21          21
                22          22
                23          23
                24          24
                25          25
                26          26
                27          27
                28          28
                29          29
                30          30
                31          31
                32          32
                33          33
                34          34
                35          35
                36          36
                37          37
                38          38
                39          39
                40          40
                41          41
                42          42
                43          43
                44          44
                45          45
                46          46
                47          47
                48          48
                49          49
                50          50
                51          51
                52          52
                53          53
                54          54
                55          55
                56          56
                57          57
                58          58
                59          59
                60          60
                61          61
                62          62
                63          63
                64          64
                65          65
                66          66
                67          67
                68          68
                69          69
                70          70
                71          71
                72          72
                73          73
                74          74
                75          75
                76          76
                77          77
                78          78
                79          79
                80          80
                81          81
                82          82
                83          83
                84          84
                85          85
                86          86
                87          87
                88          88
                89          89
                90          90
                91          91
                92          92
                93          93
                94          94
                95          95
                96          96
                97          97
                98          98
                99          99
               100         100
               101         101
               102         102
               103         103
               104         104
               105         105
               106         106
               107         107
               108         108
               109         109
               110         110
               111         111
               112         112
               113         113
               114         114
               115         115
               116         116
               117         117
               118         118
               119         119
               120         120
               121         121
               122         122
               123         123
               124         124

----------------------------------------------------------------------------------------

 
 
 KPOINTS: KPOINTS generated by db_to_vasp         

Automatic generation of k-mesh.
 Grid dimensions read from file:
 generate k-points for:    4    4    4

 Generating k-lattice:

  Cartesian coordinates                     Fractional coordinates (reciprocal lattice)
     0.019224869  0.006840893  0.011748694     0.250000000 -0.000000000 -0.000000000
     0.000001002  0.020433085  0.011798961     0.000000000  0.250000000  0.000000000
    -0.000040481  0.000029731  0.023546231     0.000000000  0.000000000  0.250000000

  Length of vectors
     0.023546236  0.023595051  0.023546285

  Shift w.r.t. Gamma in fractional coordinates (k-lattice)
     0.000000000  0.000000000  0.000000000

 
 Subroutine IBZKPT returns following result:
 ===========================================
 
 Found     36 irreducible k-points:
 
 Following reciprocal coordinates:
            Coordinates               Weight
  0.000000  0.000000  0.000000      1.000000
  0.250000  0.000000  0.000000      2.000000
  0.000000  0.000000 -0.250000      2.000000
  0.500000  0.000000  0.000000      1.000000
  0.000000  0.000000  0.500000      1.000000
  0.000000  0.250000  0.000000      2.000000
  0.250000  0.250000  0.000000      2.000000
  0.000000 -0.250000 -0.250000      2.000000
  0.500000  0.250000  0.000000      2.000000
  0.000000 -0.250000  0.500000      2.000000
 -0.250000  0.250000  0.000000      2.000000
  0.000000 -0.250000  0.250000      2.000000
  0.000000  0.500000  0.000000      1.000000
  0.250000  0.500000  0.000000      2.000000
  0.000000  0.500000 -0.250000      2.000000
  0.500000  0.500000  0.000000      1.000000
  0.000000  0.500000  0.500000      1.000000
  0.250000  0.000000  0.250000      2.000000
  0.500000  0.000000  0.250000      2.000000
 -0.250000  0.000000  0.500000      2.000000
 -0.250000  0.000000  0.250000      2.000000
  0.250000  0.250000  0.250000      2.000000
  0.500000  0.250000  0.250000      2.000000
 -0.250000 -0.250000  0.500000      2.000000
 -0.250000  0.250000  0.250000      2.000000
 -0.250000 -0.250000  0.250000      2.000000
  0.250000  0.500000  0.250000      2.000000
  0.500000  0.500000  0.250000      2.000000
 -0.250000  0.500000  0.500000      2.000000
 -0.250000  0.500000  0.250000      2.000000
  0.250000 -0.250000  0.250000      2.000000
  0.500000 -0.250000  0.250000      2.000000
 -0.250000  0.250000  0.500000      2.000000
  0.500000  0.000000  0.500000      1.000000
  0.500000  0.250000  0.500000      2.000000
  0.500000  0.500000  0.500000      1.000000
 
 Following cartesian coordinates:
            Coordinates               Weight
  0.000000  0.000000  0.000000      1.000000
  0.019225  0.006841  0.011749      2.000000
  0.000040 -0.000030 -0.023546      2.000000
  0.038450  0.013682  0.023497      1.000000
 -0.000081  0.000059  0.047092      1.000000
  0.000001  0.020433  0.011799      2.000000
  0.019226  0.027274  0.023548      2.000000
  0.000039 -0.020463 -0.035345      2.000000
  0.038451  0.034115  0.035296      2.000000
 -0.000082 -0.020374  0.035294      2.000000
 -0.019224  0.013592  0.000050      2.000000
 -0.000041 -0.020403  0.011747      2.000000
  0.000002  0.040866  0.023598      1.000000
  0.019227  0.047707  0.035347      2.000000
  0.000042  0.040836  0.000052      2.000000
  0.038452  0.054548  0.047095      1.000000
 -0.000079  0.040926  0.070690      1.000000
  0.019184  0.006871  0.035295      2.000000
  0.038409  0.013712  0.047044      2.000000
 -0.019306 -0.006781  0.035344      2.000000
 -0.019265 -0.006811  0.011798      2.000000
  0.019185  0.027304  0.047094      2.000000
  0.038410  0.034145  0.058843      2.000000
 -0.019307 -0.027215  0.023545      2.000000
 -0.019264  0.013622  0.023596      2.000000
 -0.019266 -0.027244 -0.000001      2.000000
  0.019186  0.047737  0.058893      2.000000
  0.038411  0.054578  0.070642      2.000000
 -0.019304  0.034085  0.058942      2.000000
 -0.019263  0.034055  0.035395      2.000000
  0.019183 -0.013562  0.023496      2.000000
  0.038408 -0.006722  0.035245      2.000000
 -0.019305  0.013652  0.047143      2.000000
  0.038369  0.013741  0.070590      1.000000
  0.038370  0.034174  0.082389      2.000000
  0.038371  0.054607  0.094188      1.000000
 


--------------------------------------------------------------------------------------------------------




 Dimension of arrays:
   k-points           NKPTS =     36   k-points in BZ     NKDIM =     36   number of bands    NBANDS=    820
   number of dos      NEDOS =    301   number of ions     NIONS =    124
   non local maximal  LDIM  =      6   non local SUM 2l+1 LMDIM =     18
   total plane-waves  NPLWV = 941192
   max r-space proj   IRMAX =      1   max aug-charges    IRDMAX=  21827
   dimension x,y,z NGX =    98 NGY =   98 NGZ =   98
   dimension x,y,z NGXF=   196 NGYF=  196 NGZF=  196
   support grid    NGXF=   196 NGYF=  196 NGZF=  196
   ions per type =             114   5   5
   NGX,Y,Z   is equivalent  to a cutoff of  12.54, 12.54, 12.54 a.u.
   NGXF,Y,Z  is equivalent  to a cutoff of  25.07, 25.07, 25.07 a.u.

 SYSTEM =  unknown system                          
 POSCAR =  V  Cr Ti                                

 Startparameter for this run:
   NWRITE =      2    write-flag & timer
   PREC   = accura    normal or accurate (medium, high low for compatibility)
   ISTART =      0    job   : 0-new  1-cont  2-samecut
   ICHARG =      2    charge: 1-file 2-atom 10-const
   ISPIN  =      1    spin polarized calculation?
   LNONCOLLINEAR =      F non collinear calculations
   LSORBIT =      F    spin-orbit coupling
   INIWAV =      1    electr: 0-lowe 1-rand  2-diag
   LASPH  =      F    aspherical Exc in radial PAW
 Electronic Relaxation 1
   ENCUT  =  520.0 eV  38.22 Ry    6.18 a.u.  24.16 24.16 24.16*2*pi/ulx,y,z
   ENINI  =  520.0     initial cutoff
   ENAUG  =  598.5 eV  augmentation charge cutoff
   NELM   =     60;   NELMIN=  2; NELMDL= -5     # of ELM steps 
   EDIFF  = 0.1E-05   stopping-criterion for ELM
   LREAL  =      F    real-space projection
   NLSPLINE    = F    spline interpolate recip. space projectors
   LCOMPAT=      F    compatible to vasp.4.4
   GGA_COMPAT  = T    GGA compatible to vasp.4.4-vasp.4.6
   LMAXPAW     = -100 max onsite density
   LMAXMIX     =    2 max onsite mixed and CHGCAR
   VOSKOWN=      0    Vosko Wilk Nusair interpolation
   ROPT   =    0.00000   0.00000   0.00000
 Ionic relaxation
   EDIFFG = 0.1E-04   stopping-criterion for IOM
   NSW    =      0    number of steps for IOM
   NBLOCK =      1;   KBLOCK =      1    inner block; outer block 
   IBRION =     -1    ionic relax: 0-MD 1-quasi-New 2-CG
   NFREE  =      0    steps in history (QN), initial steepest desc. (CG)
   ISIF   =      2    stress and relaxation
   IWAVPR =     10    prediction:  0-non 1-charg 2-wave 3-comb
   ISYM   =      2    0-nonsym 1-usesym 2-fastsym
   LCORR  =      T    Harris-Foulkes like correction to forces

   POTIM  = 0.5000    time-step for ionic-motion
   TEIN   =    0.0    initial temperature
   TEBEG  =    0.0;   TEEND  =   0.0 temperature during run
   SMASS  =  -3.00    Nose mass-parameter (am)
   estimated Nose-frequenzy (Omega)   =  0.10E-29 period in steps = 0.13E+47 mass=  -0.386E-26a.u.
   SCALEE = 1.0000    scale energy and forces
   NPACO  =    256;   APACO  = 10.0  distance and # of slots for P.C.
   PSTRESS=    0.0 pullay stress

  Mass of Ions in am
   POMASS =  50.94 52.00 47.88
  Ionic Valenz
   ZVAL   =  11.00 12.00 10.00
  Atomic Wigner-Seitz radii
   RWIGS  =  -1.00 -1.00 -1.00
  virtual crystal weights 
   VCA    =   1.00  1.00  1.00
   NELECT =    1364.0000    total number of electrons
   NUPDOWN=      -1.0000    fix difference up-down

 DOS related values:
   EMIN   =  10.00;   EMAX   =-10.00  energy-range for DOS
   EFERMI =   0.00;   METHOD = LEGACY      
   ISMEAR =     1;   SIGMA  =   0.20  broadening in eV -4-tet -1-fermi 0-gaus

 Electronic relaxation 2 (details)
   IALGO  =     38    algorithm
   LDIAG  =      T    sub-space diagonalisation (order eigenvalues)
   LSUBROT=      F    optimize rotation matrix (better conditioning)
   TURBO    =      0    0=normal 1=particle mesh
   IRESTART =      0    0=no restart 2=restart with 2 vectors
   NREBOOT  =      0    no. of reboots
   NMIN     =      0    reboot dimension
   EREF     =   0.00    reference energy to select bands
   IMIX   =      4    mixing-type and parameters
     AMIX     =   0.40;   BMIX     =  1.00
     AMIX_MAG =   1.60;   BMIX_MAG =  1.00
     AMIN     =   0.10
     WC   =   100.;   INIMIX=   1;  MIXPRE=   1;  MAXMIX= -45

 Intra band minimization:
   WEIMIN = 0.0000     energy-eigenvalue tresh-hold
   EBREAK =  0.30E-09  absolut break condition
   DEPER  =   0.30     relativ break condition  

   TIME   =   0.40     timestep for ELM

  volume/ion in A,a.u.               =      13.62        91.94
  Fermi-wavevector in a.u.,A,eV,Ry     =   1.524423  2.880741 31.618097  2.323865
  Thomas-Fermi vector in A             =   2.632732
 
 Write flags
   LWAVE        =      F    write WAVECAR
   LDOWNSAMPLE  =      F    k-point downsampling of WAVECAR
   LCHARG       =      T    write CHGCAR
   LVTOT        =      F    write LOCPOT, total local potential
   LVHAR        =      F    write LOCPOT, Hartree potential only
   LELF         =      F    write electronic localiz. function (ELF)
   LORBIT       =      0    0 simple, 1 ext, 2 COOP (PROOUT), +10 PAW based schemes


 Dipole corrections
   LMONO  =      F    monopole corrections only (constant potential shift)
   LDIPOL =      F    correct potential (dipole corrections)
   IDIPOL =      0    1-x, 2-y, 3-z, 4-all directions 
   EPSILON=  1.0000000 bulk dielectric constant

 Exchange correlation treatment:
   GGA     =    --    GGA type
   LEXCH   =     8    internal setting for exchange type
   LIBXC   =     F    Libxc                    
   VOSKOWN =     0    Vosko Wilk Nusair interpolation
   LHFCALC =     F    Hartree Fock is set to
   LHFONE  =     F    Hartree Fock one center treatment
   AEXX    =    0.0000 exact exchange contribution

 Linear response parameters
   LEPSILON=     F    determine dielectric tensor
   LRPA    =     F    only Hartree local field effects (RPA)
   LNABLA  =     F    use nabla operator in PAW spheres
   LVEL    =     F    velocity operator in full k-point grid
   CSHIFT  =0.1000    complex shift for real part using Kramers Kronig
   OMEGAMAX=  -1.0    maximum frequency
   DEG_THRESHOLD= 0.2000000E-02 threshold for treating states as degnerate
   RTIME   =   -0.100 relaxation time in fs
  (WPLASMAI=    0.000 imaginary part of plasma frequency in eV, 0.658/RTIME)
   DFIELD  = 0.0000000 0.0000000 0.0000000 field for delta impulse in time
 
  Optional k-point grid parameters
   LKPOINTS_OPT  =     F    use optional k-point grid
   KPOINTS_OPT_MODE=     1    mode for optional k-point grid
 
 Orbital magnetization related:
   ORBITALMAG=     F  switch on orbital magnetization
   LCHIMAG   =     F  perturbation theory with respect to B field
   DQ        =  0.001000  dq finite difference perturbation B field
   LLRAUG    =     F  two centre corrections for induced B field
   LBONE     =     F  B-component reconstruction in AE one-centre
   LVGVCALC  =     T  calculate vGv susceptibility
   LVGVAPPL  =     F  apply vGv susceptibility instead of pGv for G=0

 Random number generation:
   RANDOM_GENERATOR = DEFAULT
   PCG_SEED         = not used


--------------------------------------------------------------------------------------------------------


 Static calculation
 charge density and potential will be updated during run
 non-spin polarized calculation
 Variant of blocked Davidson
 Davidson routine will perform the subspace rotation
 perform sub-space diagonalisation
    after iterative eigenvector-optimisation
 modified Broyden-mixing scheme, WC =      100.0
 initial mixing is a Kerker type mixing with AMIX =  0.4000 and BMIX =      1.0000
 Hartree-type preconditioning will be used
 using additional bands           138
 reciprocal scheme for non local part
 use partial core corrections
 calculate Harris-corrections to forces 
   (improved forces if not selfconsistent)
 use gradient corrections 
 use of overlap-Matrix (Vanderbilt PP)
 Methfessel and Paxton  Order N= 1 SIGMA  =   0.20


--------------------------------------------------------------------------------------------------------


  energy-cutoff  :      520.00
  volume of cell :     1689.36
      direct lattice vectors                 reciprocal lattice vectors
    12.995147041 -0.013548323  0.022358575     0.076899476  0.027363571  0.046994778
    -4.344442071 12.248515902 -0.022934774     0.000004010  0.081732338  0.047195846
    -4.307105760 -6.130942661 10.617746937    -0.000161924  0.000118924  0.094184924

  length of vectors
    12.995173338 12.996185776 12.995236356     0.094184943  0.094380205  0.094185138


 
 k-points in units of 2pi/SCALE and weight: KPOINTS generated by db_to_vasp         
   0.00000000  0.00000000  0.00000000       0.016
   0.01922487  0.00684089  0.01174869       0.031
   0.00004048 -0.00002973 -0.02354623       0.031
   0.03844974  0.01368179  0.02349739       0.016
  -0.00008096  0.00005946  0.04709246       0.016
   0.00000100  0.02043308  0.01179896       0.031
   0.01922587  0.02727398  0.02354766       0.031
   0.00003948 -0.02046282 -0.03534519       0.031
   0.03845074  0.03411487  0.03529635       0.031
  -0.00008196 -0.02037362  0.03529350       0.031
  -0.01922387  0.01359219  0.00005027       0.031
  -0.00004148 -0.02040335  0.01174727       0.031
   0.00000200  0.04086617  0.02359792       0.016
   0.01922687  0.04770706  0.03534662       0.031
   0.00004249  0.04083644  0.00005169       0.031
   0.03845174  0.05454795  0.04709531       0.016
  -0.00007896  0.04092563  0.07069039       0.016
   0.01918439  0.00687062  0.03529493       0.031
   0.03840926  0.01371152  0.04704362       0.031
  -0.01930583 -0.00678143  0.03534377       0.031
  -0.01926535 -0.00681116  0.01179754       0.031
   0.01918539  0.02730371  0.04709389       0.031
   0.03841026  0.03414460  0.05884258       0.031
  -0.01930683 -0.02721452  0.02354481       0.031
  -0.01926435  0.01362192  0.02359650       0.031
  -0.01926635 -0.02724425 -0.00000142       0.031
   0.01918639  0.04773679  0.05889285       0.031
   0.03841126  0.05457769  0.07064154       0.031
  -0.01930383  0.03408474  0.05894169       0.031
  -0.01926335  0.03405501  0.03539546       0.031
   0.01918339 -0.01356246  0.02349596       0.031
   0.03840825 -0.00672157  0.03524466       0.031
  -0.01930483  0.01365165  0.04714273       0.031
   0.03836878  0.01374125  0.07058985       0.016
   0.03836978  0.03417433  0.08238881       0.031
   0.03837078  0.05460742  0.09418777       0.016
 
 k-points in reciprocal lattice and weights: KPOINTS generated by db_to_vasp         
   0.00000000  0.00000000  0.00000000       0.016
   0.25000000  0.00000000  0.00000000       0.031
   0.00000000  0.00000000 -0.25000000       0.031
   0.50000000  0.00000000  0.00000000       0.016
   0.00000000  0.00000000  0.50000000       0.016
   0.00000000  0.25000000  0.00000000       0.031
   0.25000000  0.25000000  0.00000000       0.031
   0.00000000 -0.25000000 -0.25000000       0.031
   0.50000000  0.25000000  0.00000000       0.031
   0.00000000 -0.25000000  0.50000000       0.031
  -0.25000000  0.25000000  0.00000000       0.031
   0.00000000 -0.25000000  0.25000000       0.031
   0.00000000  0.50000000  0.00000000       0.016
   0.25000000  0.50000000  0.00000000       0.031
   0.00000000  0.50000000 -0.25000000       0.031
   0.50000000  0.50000000  0.00000000       0.016
   0.00000000  0.50000000  0.50000000       0.016
   0.25000000  0.00000000  0.25000000       0.031
   0.50000000  0.00000000  0.25000000       0.031
  -0.25000000  0.00000000  0.50000000       0.031
  -0.25000000  0.00000000  0.25000000       0.031
   0.25000000  0.25000000  0.25000000       0.031
   0.50000000  0.25000000  0.25000000       0.031
  -0.25000000 -0.25000000  0.50000000       0.031
  -0.25000000  0.25000000  0.25000000       0.031
  -0.25000000 -0.25000000  0.25000000       0.031
   0.25000000  0.50000000  0.25000000       0.031
   0.50000000  0.50000000  0.25000000       0.031
  -0.25000000  0.50000000  0.50000000       0.031
  -0.25000000  0.50000000  0.25000000       0.031
   0.25000000 -0.25000000  0.25000000       0.031
   0.50000000 -0.25000000  0.25000000       0.031
  -0.25000000  0.25000000  0.50000000       0.031
   0.50000000  0.00000000  0.50000000       0.016
   0.50000000  0.25000000  0.50000000       0.031
   0.50000000  0.50000000  0.50000000       0.016
 
 position of ions in fractional coordinates (direct lattice) 
   0.00609999  0.00514198  0.00465949
   0.99580827  0.00146711  0.19469572
   0.01187214  0.00113015  0.39992216
   0.00382586  0.00010212  0.59883647
   0.00157798  0.00466360  0.80391633
   0.00610722  0.20182330  0.20133133
   0.00293459  0.19932094  0.39892682
   0.00374946  0.19900264  0.60110180
   0.00157707  0.39805025  0.19730192
   0.00310356  0.40160561  0.39966400
   0.00169260  0.39963063  0.60038000
   0.00890819  0.40046158  0.80886427
   0.00375095  0.60303006  0.00512223
   0.00383043  0.60537936  0.20410400
   0.00350870  0.60148181  0.40071958
   0.00313384  0.60246564  0.60104872
   0.00167737  0.60169539  0.80243574
   0.01186646  0.81231566  0.21111702
   0.99535883  0.79480836  0.40094851
   0.00348700  0.80317020  0.60239504
   0.00307991  0.80381593  0.80186544
   0.20089847  0.00099078  0.00113384
   0.19941251  0.00067773  0.20881702
   0.00294698  0.80438787  0.00399966
   0.19872362  0.00037453  0.59364649
   0.20059441  0.00128973  0.80149631
   0.20071197  0.20086306  0.00452661
   0.20334836  0.19966169  0.20404661
   0.19940954  0.19096725  0.39909624
   0.19978865  0.20730926  0.60546268
   0.19614607  0.20065132  0.80299948
   0.19771048  0.39767186  0.00039416
   0.20070800  0.39656078  0.20020926
   0.20091520  0.40014975  0.40028006
   0.20019725  0.40132129  0.59809661
   0.20298899  0.40428808  0.80223404
   0.20301086  0.60113754  0.99908225
   0.19614870  0.59351989  0.19585658
   0.20061848  0.59948303  0.39968135
   0.20156962  0.60100475  0.60041763
   0.20082835  0.60111880  0.80010184
   0.20019883  0.80247598  0.99926739
   0.19979051  0.79471667  0.19286546
   0.19872900  0.80545398  0.39871658
   0.20077514  0.80131286  0.59984307
   0.20154140  0.80152169  0.80093923
   0.39949678  0.00045666  0.99912322
   0.39818611  0.99975054  0.19855200
   0.38390581  0.99516948  0.39240570
   0.39277507  0.99416581  0.59899339
   0.40064514  0.00237632  0.80050989
   0.39975406  0.20103588  0.00082818
   0.39984859  0.20000872  0.19762824
   0.40516739  0.20807875  0.39747759
   0.38391679  0.19189404  0.58911961
   0.39367970  0.20006898  0.79978889
   0.40064958  0.40169571  0.00172384
   0.40066429  0.40096010  0.20006978
   0.39985345  0.40260640  0.40021563
   0.39817987  0.40000937  0.59880387
   0.40133579  0.40200703  0.80154012
   0.40257792  0.60165420  0.00126648
   0.40064577  0.59928547  0.19931062
   0.39975610  0.59929942  0.39908022
   0.39951950  0.60077715  0.59942545
   0.40124347  0.60206909  0.80117992
   0.40125322  0.80042520  0.99954191
   0.40135120  0.80016026  0.19969879
   0.39368944  0.79427137  0.39397294
   0.40065034  0.80052948  0.59865045
   0.40082700  0.80155217  0.79964937
   0.59973082  0.99949286  0.00039793
   0.60197277  0.00017690  0.19850669
   0.59404334  0.99384456  0.38717310
   0.60947001  0.00121633  0.80864974
   0.60399856  0.20103194  0.00375398
   0.60008924  0.20117332  0.19917818
   0.60121479  0.20056735  0.39562333
   0.57458796  0.19796167  0.57699585
   0.60164988  0.40009877  0.00022451
   0.60022469  0.40169775  0.19862880
   0.60291671  0.40485097  0.39844256
   0.60121272  0.40598115  0.60103232
   0.59404467  0.40724179  0.80057211
   0.60264080  0.60253035  0.00213055
   0.60182091  0.60178082  0.20040141
   0.60021227  0.60196078  0.39889775
   0.60010240  0.60130169  0.59930800
   0.60196513  0.60382905  0.80214971
   0.60263545  0.80180699  0.00117561
   0.60264752  0.80086693  0.20047038
   0.60164937  0.80179074  0.40192804
   0.60399195  0.80064136  0.60334732
   0.59975205  0.79972487  0.80061907
   0.80313578  0.00448393  0.99903292
   0.80324390  0.00116771  0.20099761
   0.80421013  0.00200515  0.40142346
   0.81064487  0.00137346  0.60920995
   0.80357489  0.20092516  0.19503969
   0.80378610  0.20071630  0.39506617
   0.81064671  0.40184518  0.00967213
   0.80253703  0.40341855  0.20234202
   0.80335696  0.40237759  0.39889248
   0.80276159  0.40869259  0.59443367
   0.80419993  0.60316114  0.00258571
   0.80186055  0.60203024  0.19898055
   0.80058108  0.60122943  0.39973793
   0.80335711  0.60484825  0.60136531
   0.80378282  0.60909653  0.80344685
   0.80324633  0.80261416  0.00244534
   0.80571583  0.80343868  0.20266933
   0.80186143  0.80326073  0.40021348
   0.80252981  0.80059106  0.59950255
   0.80358275  0.80892062  0.80303236
   0.00534558  0.20074784  0.00497965
   0.00982892  0.20101119  0.80515622
   0.00983201  0.40506829  0.00920459
   0.80598703  0.99758901  0.80510370
   0.80598112  0.20127406  0.00879606
   0.59783555  0.00218603  0.59615181
   0.59783724  0.20207290  0.79603962
   0.79760821  0.20035023  0.59718545
   0.82056346  0.20077244  0.82019988
   0.79760994  0.40080266  0.79763063
 
 position of ions in cartesian coordinates  (Angst):
   0.03686235  0.03433186  0.04949178
  12.09572608 -1.18918992  2.08946108
  -1.57313668 -2.43821806  4.24651183
  -2.52997807 -3.67023310  6.35837727
  -3.46230738 -4.87166409  8.53570852
  -1.66460069  1.23760230  2.13319285
  -2.54602290 -0.00445148  4.23119826
  -3.40483973 -1.24788455  6.37786659
  -2.55861217  3.66585675  2.08580789
  -3.42581620  2.46871351  4.23438991
  -4.30007674  1.21396390  6.36555526
  -5.10788281 -0.05416114  8.57933084
  -2.59314698  7.35476833  0.04064000
  -3.45935607  6.16359690  2.15332604
  -4.29344846  4.91042315  4.24102273
  -5.16543279  3.69427226  6.36803587
  -6.04840863  2.45016532  8.50629735
  -4.28415526  8.65515413  2.22322213
   7.75490783  7.26354507  4.26119587
  -6.03859149  6.14434626  6.37773549
  -6.90582711  4.92931948  8.49563788
   2.60151724  0.00246223  0.01650792
   1.68905352 -1.27464567  2.22160930
  -3.47354698  9.82799593  0.02408486
   0.02391736 -3.63771760  6.30762283
  -0.85097875 -4.90084830  8.51454041
   1.71614712  2.42980269  0.04794324
   0.89627281  1.19180629  2.16648267
   0.04276044 -0.11047239  4.23758161
  -0.91215204 -1.17553304  6.42836193
  -1.78137470 -2.46812037  8.52582897
   0.83991665  4.86579492 -0.00051491
   0.02307217  3.62709023  2.12116374
  -0.85155338  2.44442446  4.24538717
  -1.71798972  1.24598192  6.34571034
  -2.57384129  0.03072792  8.51318434
  -4.27660419  1.23497632 10.59875454
  -0.87310654  6.06629483  2.07032893
  -1.71882254  4.88963601  4.23445194
  -2.57766571  3.67755926  6.36580532
  -3.44785510  2.45471384  8.48598257
  -5.18864750  3.69997637 10.59603986
  -1.68698541  8.54894584  2.03403705
  -2.63405004  7.41841500  4.21944209
  -3.45574239  6.13456971  6.35509303
  -4.31283443  4.90420817  8.49029352
   0.88620602 -6.12538628 10.61735924
  -0.02405579 11.02275471  2.09414872
  -1.02467657  9.77833111  4.15222402
  -1.79485379  8.49934017  6.34594111
   1.74823789 -4.88420196  8.50851484
   4.31790695  2.45189770  0.01312064
   3.47595918  1.23274528  2.10271949
   2.64924569  0.10625420  4.22460319
   1.61798215 -1.26664272  6.25930571
   0.80196208 -2.45824548  8.49616966
   3.45393172  4.90417936  0.01804849
   2.60302167  3.67912140  2.12405270
   1.72328317  2.47221443  4.24909476
   0.85747686  1.22289421  6.35767661
   0.01660331  0.00435556  8.51030354
   2.61225258  7.35615207  0.00864944
   1.74443781  6.11296759  2.11144310
   0.87238699  4.88837450  4.23252593
  -0.00001562  3.67817255  6.35970171
  -0.85220301  2.45702850  8.50188852
  -2.56818906  3.67045039 10.60349695
   0.87924424  8.57099622  2.11097331
  -0.03149698  7.30788618  4.17369091
  -0.84979471  6.12957836  6.34691704
  -1.71766557  4.90978955  8.48105313
   3.44963735 12.23173920 -0.00528886
   6.96696688 -1.22302216  2.12114902
   1.73438492  9.79133655  4.10139436
   4.43192811 -4.95114417  8.59963724
   6.95950966  2.43114432  0.04875272
   6.06638063  1.23479437  2.12362676
   5.23752985  0.02296299  4.20947073
   4.12163991 -1.12057651  6.13470265
   6.07935571  4.89108837  0.00665962
   5.19934023  3.69428746  2.11319760
   4.36000548  2.50782653  4.23475751
   3.46037628  1.27962649  6.38574029
   2.50231077  0.07179751  8.50421410
   5.20457109  7.35887552  0.02227689
   4.34319920  6.13411873  2.12746559
   3.46656825  4.91937503  4.23500943
   2.60481564  3.68259996  6.36292740
   1.74438143  2.46992022  8.51663301
   4.34286875  9.80557344  0.00756711
   3.48872599  8.57219410  2.12365035
   2.60404211  7.34839751  4.26263334
   1.77194346  6.09939746  6.40133107
   0.87115664  4.87876750  8.49583882
   6.11444695 -6.08097324 10.62533291
   9.56748154 -1.22888469  2.15207438
   8.71314430 -2.44743981  4.28014770
   7.90455059 -3.72919127  6.48653047
   8.72960957  1.25437077  2.08424065
   7.87172645  0.02545879  4.20808079
   8.74702115  4.85172496  0.11160487
   7.80494975  3.68985813  2.15710768
   6.97356361  2.47205717  4.24407291
   6.09617497  1.35056286  6.32012164
   7.81916083  7.36108039  0.03160182
   6.94777992  6.14317479  2.11684620
   6.06994886  4.90255135  4.24842693
   5.22187162  3.71067299  6.38923454
   4.33856084  2.52375210  8.53479723
   6.94086118  9.80495744  0.02551564
   6.10698463  8.58746135  2.15147964
   5.20682569  7.37420205  4.24887135
   4.36875051  6.11966361  6.36494840
   3.46962194  4.97384454  8.52580888
  -0.82411865  2.42826071  0.04838810
  -4.21344622 -2.47441102  8.54455456
  -1.67167245  4.90491944  0.08866168
   2.67228555  7.27202042  8.54352857
   9.56153411  2.40046076  0.10679873
   5.19177490 -3.63629656  6.34310565
   3.46246196 -2.41347984  8.46087956
   6.92248512 -1.21812302  6.35400233
   6.25841099 -2.58055126  8.72241675
   5.18831507  0.00820374  8.47768132
 


--------------------------------------------------------------------------------------------------------


 k-point   1 :   0.0000 0.0000 0.0000  plane waves:   45567
 k-point   2 :   0.2500 0.0000 0.0000  plane waves:   45468
 k-point   3 :   0.0000 0.0000-0.2500  plane waves:   45468
 k-point   4 :   0.5000 0.0000 0.0000  plane waves:   45464
 k-point   5 :   0.0000 0.0000 0.5000  plane waves:   45464
 k-point   6 :   0.0000 0.2500 0.0000  plane waves:   45468
 k-point   7 :   0.2500 0.2500 0.0000  plane waves:   45502
 k-point   8 :   0.0000-0.2500-0.2500  plane waves:   45502
 k-point   9 :   0.5000 0.2500 0.0000  plane waves:   45494
 k-point  10 :   0.0000-0.2500 0.5000  plane waves:   45494
 k-point  11 :  -0.2500 0.2500 0.0000  plane waves:   45469
 k-point  12 :   0.0000-0.2500 0.2500  plane waves:   45470
 k-point  13 :   0.0000 0.5000 0.0000  plane waves:   45472
 k-point  14 :   0.2500 0.5000 0.0000  plane waves:   45502
 k-point  15 :   0.0000 0.5000-0.2500  plane waves:   45502
 k-point  16 :   0.5000 0.5000 0.0000  plane waves:   45470
 k-point  17 :   0.0000 0.5000 0.5000  plane waves:   45470
 k-point  18 :   0.2500 0.0000 0.2500  plane waves:   45497
 k-point  19 :   0.5000 0.0000 0.2500  plane waves:   45499
 k-point  20 :  -0.2500 0.0000 0.5000  plane waves:   45499
 k-point  21 :  -0.2500 0.0000 0.2500  plane waves:   45470
 k-point  22 :   0.2500 0.2500 0.2500  plane waves:   45516
 k-point  23 :   0.5000 0.2500 0.2500  plane waves:   45501
 k-point  24 :  -0.2500-0.2500 0.5000  plane waves:   45501
 k-point  25 :  -0.2500 0.2500 0.2500  plane waves:   45454
 k-point  26 :  -0.2500-0.2500 0.2500  plane waves:   45454
 k-point  27 :   0.2500 0.5000 0.2500  plane waves:   45493
 k-point  28 :   0.5000 0.5000 0.2500  plane waves:   45500
 k-point  29 :  -0.2500 0.5000 0.5000  plane waves:   45500
 k-point  30 :  -0.2500 0.5000 0.2500  plane waves:   45488
 k-point  31 :   0.2500-0.2500 0.2500  plane waves:   45479
 k-point  32 :   0.5000-0.2500 0.2500  plane waves:   45499
 k-point  33 :  -0.2500 0.2500 0.5000  plane waves:   45499
 k-point  34 :   0.5000 0.0000 0.5000  plane waves:   45474
 k-point  35 :   0.5000 0.2500 0.5000  plane waves:   45488
 k-point  36 :   0.5000 0.5000 0.5000  plane waves:   45516

 maximum and minimum number of plane-waves per node :     45567    45454

 maximum number of plane-waves:     45567
 maximum index in each direction: 
   IXMAX=   24   IYMAX=   24   IZMAX=   24
   IXMIN=  -24   IYMIN=  -24   IZMIN=  -24


 serial   3D FFT for wavefunctions
 parallel 3D FFT for charge:
    minimum data exchange during FFTs selected (reduces bandwidth)


 total amount of memory used by VASP MPI-rank0  6702056. kBytes
=======================================================================

   base      :      30000. kBytes
   nonl-proj :     799080. kBytes
   fftplans  :      67629. kBytes
   grid      :     159195. kBytes
   one-center:       1928. kBytes
   wavefun   :    5644224. kBytes
 
     INWAV:  cpu time      0.0000: real time      0.0000
 Broyden mixing: mesh for mixing (old mesh)
   NGX = 49   NGY = 49   NGZ = 49
  (NGX  =196   NGY  =196   NGZ  =196)
  gives a total of 117649 points

 initial charge density was supplied:
 charge density of overlapping atoms calculated
 number of electron    1364.0000000 magnetization 
 keeping initial charge density in first step


--------------------------------------------------------------------------------------------------------


 Maximum index for augmentation-charges          5254 (set IRDMAX)


--------------------------------------------------------------------------------------------------------


 First call to EWALD:  gamma=   0.149
 Maximum number of real-space cells 3x 3x 3
 Maximum number of reciprocal cells 3x 3x 3

    FEWALD:  cpu time      0.0683: real time      0.0092


--------------------------------------- Ionic step        1  -------------------------------------------




--------------------------------------- Iteration      1(   1)  ---------------------------------------


    POTLOK:  cpu time      0.1237: real time      0.1374
    SETDIJ:  cpu time      0.1045: real time      0.0132
     EDDAV:  cpu time     82.5051: real time     82.6326
       DOS:  cpu time      0.0175: real time      0.0176
    --------------------------------------------
      LOOP:  cpu time     82.7508: real time     82.8008

 eigenvalue-minimisations  : 60392
 total energy-change (2. order) : 0.2397819E+05  (-0.7007204E+05)
 number of electron    1364.0000000 magnetization 
 augmentation part     1364.0000000 magnetization 

 Free energy of the ion-electron system (eV)
  ---------------------------------------------------
  alpha Z        PSCENC =     12315.99909697
  Ewald energy   TEWEN  =   -129906.87489332
  -Hartree energ DENC   =    -36092.46116953
  -exchange      EXHF   =         0.00000000
  -V(xc)+E(xc)   XCENC  =      3691.33765450
  PAW double counting   =    134689.96621064  -132185.80545990
  entropy T*S    EENTRO =         0.00382938
  eigenvalues    EBANDS =      7349.33977150
  atomic energy  EATOM  =    164116.68312662
  Solvation  Ediel_sol  =         0.00000000
  ---------------------------------------------------
  free energy    TOTEN  =     23978.18816686 eV

  energy without entropy =    23978.18433748  energy(sigma->0) =    23978.18689040


--------------------------------------------------------------------------------------------------------




--------------------------------------- Iteration      1(   2)  ---------------------------------------


     EDDAV:  cpu time     81.1550: real time     81.3501
       DOS:  cpu time      0.0205: real time      0.0205
    --------------------------------------------
      LOOP:  cpu time     81.1755: real time     81.3706

 eigenvalue-minimisations  : 59040
 total energy-change (2. order) :-0.2347565E+05  (-0.2309301E+05)
 number of electron    1364.0000000 magnetization 
 augmentation part     1364.0000000 magnetization 

 Free energy of the ion-electron system (eV)
  ---------------------------------------------------
  alpha Z        PSCENC =     12315.99909697
  Ewald energy   TEWEN  =   -129906.87489332
  -Hartree energ DENC   =    -36092.46116953
  -exchange      EXHF   =         0.00000000
  -V(xc)+E(xc)   XCENC  =      3691.33765450
  PAW double counting   =    134689.96621064  -132185.80545990
  entropy T*S    EENTRO =        -0.00484016
  eigenvalues    EBANDS =    -16126.30427188
  atomic energy  EATOM  =    164116.68312662
  Solvation  Ediel_sol  =         0.00000000
  ---------------------------------------------------
  free energy    TOTEN  =       502.53545394 eV

  energy without entropy =      502.54029410  energy(sigma->0) =      502.53706733


--------------------------------------------------------------------------------------------------------




--------------------------------------- Iteration      1(   3)  ---------------------------------------


     EDDAV:  cpu time    109.3893: real time    109.5608
       DOS:  cpu time      0.0220: real time      0.0220
    --------------------------------------------
      LOOP:  cpu time    109.4113: real time    109.5828

 eigenvalue-minimisations  : 86936
 total energy-change (2. order) :-0.1650657E+04  (-0.1559714E+04)
 number of electron    1364.0000000 magnetization 
 augmentation part     1364.0000000 magnetization 

 Free energy of the ion-electron system (eV)
  ---------------------------------------------------
  alpha Z        PSCENC =     12315.99909697
  Ewald energy   TEWEN  =   -129906.87489332
  -Hartree energ DENC   =    -36092.46116953
  -exchange      EXHF   =         0.00000000
  -V(xc)+E(xc)   XCENC  =      3691.33765450
  PAW double counting   =    134689.96621064  -132185.80545990
  entropy T*S    EENTRO =         0.00488910
  eigenvalues    EBANDS =    -17776.97053585
  atomic energy  EATOM  =    164116.68312662
  Solvation  Ediel_sol  =         0.00000000
[...]
   -.163E+02 -.107E+03 -.586E+00   0.166E+02 0.107E+03 0.948E+00   -.333E+00 0.161E+00 -.364E+00   0.405E-02 -.309E-02 0.426E-03
   0.415E+01 -.334E+02 0.226E+02   -.424E+01 0.334E+02 -.227E+02   0.879E-01 0.668E-01 0.328E-01   0.314E-02 -.199E-03 0.254E-02
   0.410E+02 0.151E+01 0.137E+02   -.410E+02 -.172E+01 -.136E+02   0.633E-01 0.203E+00 -.571E-01   -.127E-03 0.474E-03 -.389E-02
   0.237E+02 0.163E+01 -.518E+02   -.238E+02 -.152E+01 0.516E+02   0.135E+00 -.110E+00 0.148E+00   0.777E-02 -.669E-02 -.758E-02
   0.539E+02 -.164E+02 -.175E+03   -.542E+02 0.167E+02 0.175E+03   0.255E+00 -.292E+00 0.202E+00   0.929E-02 -.143E-01 -.323E-02
   0.828E+02 -.146E+03 0.152E+03   -.827E+02 0.146E+03 -.152E+03   -.153E+00 -.194E+00 -.122E-01   0.521E-02 0.281E-02 0.232E-02
   0.180E+02 -.613E+02 0.109E+03   -.179E+02 0.613E+02 -.109E+03   -.121E+00 0.131E-01 -.942E-01   0.339E-02 0.418E-02 -.572E-03
   0.105E+00 0.218E+02 -.289E+02   0.211E+00 -.217E+02 0.288E+02   -.322E+00 -.792E-01 0.122E+00   0.540E-02 0.713E-02 -.102E-01
   -.138E+02 0.736E+02 -.974E+02   0.146E+02 -.731E+02 0.972E+02   -.750E+00 -.548E+00 0.239E+00   0.928E-02 0.181E-02 -.749E-02
   -.910E+02 0.115E+03 -.140E+03   0.912E+02 -.115E+03 0.141E+03   -.277E+00 0.228E+00 -.362E+00   0.518E-02 -.976E-02 0.982E-02
   -.671E+02 0.553E+01 0.839E+02   0.671E+02 -.557E+01 -.841E+02   -.262E-01 0.377E-01 0.153E+00   -.565E-02 0.128E-02 0.605E-02
   -.235E+02 0.228E+00 0.842E+01   0.236E+02 -.273E+00 -.843E+01   -.696E-01 0.372E-01 0.226E-01   -.167E-02 0.104E-01 -.819E-02
   -.781E+01 0.548E+02 -.380E+02   0.779E+01 -.551E+02 0.381E+02   0.257E-01 0.244E+00 -.120E+00   -.304E-03 0.144E-01 -.872E-02
   -.495E+02 0.988E+02 -.537E+02   0.498E+02 -.980E+02 0.540E+02   -.314E+00 -.855E+00 -.295E+00   -.217E-02 0.983E-02 0.655E-02
   -.133E+03 0.115E+03 0.535E+02   0.132E+03 -.115E+03 -.539E+02   0.114E+00 -.192E+00 0.377E+00   -.611E-02 -.321E-02 0.160E-01
   -.390E+02 0.169E+02 0.863E+01   0.393E+02 -.170E+02 -.862E+01   -.240E+00 0.609E-01 -.156E-01   -.850E-02 -.319E-02 0.856E-02
   -.207E+02 -.192E+02 -.587E+01   0.207E+02 0.192E+02 0.586E+01   0.199E-01 0.807E-03 0.144E-01   -.425E-02 0.350E-02 -.567E-02
   -.888E+00 -.158E+02 -.193E+02   0.882E+00 0.158E+02 0.194E+02   0.117E-01 -.219E-01 -.790E-01   -.251E-02 0.107E-01 -.754E-02
   -.133E+02 0.312E+02 -.124E+02   0.134E+02 -.309E+02 0.126E+02   -.444E-01 -.277E+00 -.216E+00   -.332E-02 0.131E-01 0.251E-03
   -.335E+02 0.421E+02 0.183E+02   0.334E+02 -.420E+02 -.185E+02   0.116E+00 -.960E-01 0.173E+00   -.673E-02 0.354E-02 0.103E-01
   -.115E+01 0.156E+02 -.101E+02   0.105E+01 -.158E+02 0.101E+02   0.107E+00 0.135E+00 0.762E-02   -.251E-02 -.738E-02 0.218E-02
   0.210E+01 -.121E+02 -.417E+02   -.203E+01 0.122E+02 0.419E+02   -.625E-01 -.642E-01 -.233E+00   0.253E-02 -.111E-01 -.529E-02
   0.487E+02 -.765E+02 -.579E+02   -.488E+02 0.766E+02 0.580E+02   0.135E+00 -.770E-01 -.426E-01   0.327E-02 -.539E-02 -.554E-02
   0.659E+02 -.951E+02 0.502E+02   -.658E+02 0.951E+02 -.501E+02   -.113E+00 0.734E-02 -.107E+00   0.238E-02 0.481E-02 0.557E-03
   0.256E+02 0.124E+02 0.326E+02   -.257E+02 -.126E+02 -.325E+02   0.712E-01 0.198E+00 -.652E-01   -.300E-02 0.263E-02 -.383E-03
   0.464E+02 0.948E+02 -.169E+02   -.467E+02 -.953E+02 0.170E+02   0.245E+00 0.456E+00 -.632E-01   -.665E-02 0.344E-02 -.768E-02
   0.180E+02 0.365E+02 -.474E+02   -.185E+02 -.362E+02 0.471E+02   0.513E+00 -.241E+00 0.300E+00   -.473E-02 -.885E-02 -.386E-02
   0.431E+02 -.138E+02 -.552E+02   -.431E+02 0.138E+02 0.553E+02   -.393E-01 -.396E-01 -.776E-01   0.233E-02 -.112E-01 -.167E-02
   0.151E+03 -.115E+03 0.100E+03   -.151E+03 0.115E+03 -.100E+03   -.885E-01 -.644E-01 -.246E+00   0.237E-02 -.385E-02 0.765E-02
   0.689E+02 0.447E+02 -.741E+02   -.692E+02 -.448E+02 0.745E+02   0.299E+00 0.171E+00 -.387E+00   -.164E-02 0.680E-02 -.780E-02
   0.593E+02 0.538E+02 -.853E+02   -.593E+02 -.536E+02 0.850E+02   -.225E-01 -.214E+00 0.350E+00   0.531E-02 -.280E-02 -.418E-02
   0.780E+02 -.632E+02 0.189E+03   -.777E+02 0.632E+02 -.189E+03   -.261E+00 0.588E-01 -.336E-01   0.514E-02 -.536E-02 0.452E-02
   0.374E+02 -.231E+02 0.539E+01   -.375E+02 0.231E+02 -.522E+01   0.940E-01 -.181E-01 -.168E+00   0.191E-02 0.560E-02 -.622E-02
   0.132E+02 0.432E+02 -.237E+02   -.132E+02 -.432E+02 0.236E+02   -.206E-01 0.100E-02 0.135E+00   0.642E-02 0.843E-02 -.819E-02
   0.287E+02 0.164E+03 -.710E+02   -.289E+02 -.163E+03 0.708E+02   0.200E+00 -.130E+00 0.237E+00   0.724E-02 0.343E-02 0.385E-02
   -.372E+02 0.430E+02 0.431E+02   0.374E+02 -.429E+02 -.431E+02   -.974E-01 -.598E-03 -.898E-02   -.562E-02 -.556E-02 0.860E-02
   -.150E+02 -.241E+02 0.242E+02   0.146E+02 0.237E+02 -.242E+02   0.403E+00 0.449E+00 0.152E-01   -.518E-02 0.295E-03 -.252E-02
   -.772E+01 -.658E+01 -.246E+01   0.778E+01 0.675E+01 0.241E+01   -.471E-01 -.176E+00 0.639E-01   -.211E-02 0.989E-02 -.783E-02
   0.537E+01 0.488E+02 -.140E+02   -.547E+01 -.487E+02 0.141E+02   0.104E+00 -.867E-01 -.164E-01   -.515E-03 0.131E-01 0.285E-03
   -.246E+02 0.113E+03 0.174E+02   0.244E+02 -.113E+03 -.175E+02   0.178E+00 -.356E+00 0.104E+00   -.296E-02 0.283E-02 0.624E-02
   -.154E+02 0.601E+02 -.646E+01   0.151E+02 -.600E+02 0.591E+01   0.303E+00 -.920E-01 0.559E+00   -.879E-02 -.604E-02 0.132E-02
   -.361E+02 -.802E+00 -.290E+02   0.360E+02 0.795E+00 0.289E+02   0.111E+00 0.175E-01 0.830E-01   -.877E-02 -.101E-01 -.168E-02
   0.352E+01 -.372E+02 0.169E+01   -.387E+01 0.367E+02 -.176E+01   0.359E+00 0.481E+00 0.705E-01   -.355E-02 -.994E-03 -.479E-02
   0.606E+01 -.824E+00 0.440E+02   -.594E+01 0.681E+00 -.441E+02   -.115E+00 0.132E+00 0.877E-01   -.206E-02 0.807E-02 -.160E-02
   -.164E+02 0.105E+03 0.305E+02   0.166E+02 -.105E+03 -.306E+02   -.134E+00 0.477E+00 0.146E+00   -.401E-02 0.846E-02 -.506E-02
   0.172E+02 -.918E+01 0.192E+02   -.173E+02 0.931E+01 -.194E+02   0.152E+00 -.150E+00 0.213E+00   -.322E-02 0.173E-01 -.127E-01
   0.996E+02 -.846E+02 0.154E+03   -.987E+02 0.847E+02 -.154E+03   -.836E+00 -.155E+00 0.302E+00   0.138E-02 0.477E-02 0.621E-02
   0.119E+03 -.983E+02 0.130E+03   -.119E+03 0.989E+02 -.129E+03   -.106E+00 -.672E+00 -.592E+00   0.761E-02 0.611E-03 -.120E-02
   0.112E+03 -.717E+02 0.149E+03   -.112E+03 0.708E+02 -.149E+03   -.192E+00 0.939E+00 0.353E+00   0.152E-03 0.920E-02 -.601E-02
   0.125E+03 -.812E+02 0.133E+03   -.126E+03 0.809E+02 -.132E+03   0.667E+00 0.332E+00 -.698E+00   -.494E-03 0.985E-02 -.502E-02
   0.337E+02 -.131E+03 -.287E+02   -.336E+02 0.130E+03 0.287E+02   -.641E-01 0.388E+00 0.103E-01   0.829E-02 -.100E-01 0.665E-02
   -.739E+02 -.547E+02 0.103E+03   0.737E+02 0.545E+02 -.103E+03   0.170E+00 0.222E+00 -.276E+00   0.353E-02 -.648E-02 0.126E-01
   0.133E+03 0.265E+02 -.412E+02   -.133E+03 -.262E+02 0.409E+02   -.598E-01 -.208E+00 0.290E+00   0.112E-01 -.107E-01 0.104E-01
   0.199E+03 -.142E+03 0.245E+03   -.199E+03 0.142E+03 -.245E+03   -.170E+00 0.566E-01 -.169E+00   0.611E-02 -.351E-02 0.688E-02
   0.234E+02 0.104E+03 0.937E+02   -.235E+02 -.104E+03 -.938E+02   0.120E+00 -.335E+00 0.711E-01   0.711E-02 -.777E-02 0.156E-01
 -----------------------------------------------------------------------------------------------
   0.103E+01 -.712E+00 0.125E+01   0.341E-11 0.117E-11 -.244E-11   -.102E+01 0.678E+00 -.124E+01   -.831E-02 0.331E-01 -.256E-01
 
 
 POSITION                                       TOTAL-FORCE (eV/Angst)
 -----------------------------------------------------------------------------------
      0.03686      0.03433      0.04949        -0.001306      0.002469     -0.003524
     12.09573     -1.18919      2.08946         0.000452      0.006046     -0.002971
     -1.57314     -2.43822      4.24651         0.003328      0.001110     -0.000013
     -2.52998     -3.67023      6.35838        -0.000175      0.000405      0.000649
     -3.46231     -4.87166      8.53571        -0.000169      0.001251      0.000924
     -1.66460      1.23760      2.13319        -0.002216      0.003236     -0.002371
     -2.54602     -0.00445      4.23120         0.000287      0.004051      0.000437
     -3.40484     -1.24788      6.37787        -0.000384     -0.000046      0.000255
     -2.55861      3.66586      2.08581         0.001314      0.000164     -0.000838
     -3.42582      2.46871      4.23439        -0.003208      0.001739      0.001137
     -4.30008      1.21396      6.36556        -0.001379     -0.000175      0.002661
     -5.10788     -0.05416      8.57933         0.000112     -0.002989      0.001652
     -2.59315      7.35477      0.04064         0.000014     -0.000429     -0.000323
     -3.45936      6.16360      2.15333         0.000590     -0.000244     -0.000250
     -4.29345      4.91042      4.24102         0.000120     -0.002507      0.000025
     -5.16543      3.69427      6.36804         0.000601     -0.003255      0.002303
     -6.04841      2.45017      8.50630         0.001670     -0.002305     -0.000987
     -4.28416      8.65515      2.22322         0.001411      0.002418      0.002359
      7.75491      7.26355      4.26120         0.001246     -0.005280      0.004076
     -6.03859      6.14435      6.37774        -0.001013     -0.001545      0.001501
     -6.90583      4.92932      8.49564         0.000682     -0.000846     -0.003670
      2.60152      0.00246      0.01651        -0.000155      0.001575     -0.002308
      1.68905     -1.27465      2.22161        -0.001402      0.003797     -0.004796
     -3.47355      9.82800      0.02408         0.002356      0.002592     -0.001906
      0.02392     -3.63772      6.30762        -0.000529     -0.001447     -0.000537
     -0.85098     -4.90085      8.51454         0.002163     -0.000154     -0.000583
      1.71615      2.42980      0.04794         0.000695      0.003225     -0.001253
      0.89627      1.19181      2.16648        -0.000307      0.003081     -0.001955
      0.04276     -0.11047      4.23758        -0.002727      0.004898     -0.003325
     -0.91215     -1.17553      6.42836        -0.005437     -0.000287      0.000814
     -1.78137     -2.46812      8.52583        -0.001411     -0.000381      0.000839
      0.83992      4.86579     -0.00051         0.002576      0.002746      0.000553
      0.02307      3.62709      2.12116         0.000653      0.003203     -0.001308
     -0.85155      2.44442      4.24539        -0.001227      0.002461     -0.000923
     -1.71799      1.24598      6.34571        -0.002160      0.001496      0.002416
     -2.57384      0.03073      8.51318         0.000972     -0.000874      0.000719
     -4.27660      1.23498     10.59875         0.000416     -0.000622      0.001185
     -0.87311      6.06629      2.07033        -0.000025     -0.001277     -0.000863
     -1.71882      4.88964      4.23445         0.000180      0.001200      0.001803
     -2.57767      3.67756      6.36581        -0.001465      0.001689      0.001833
     -3.44786      2.45471      8.48598         0.002241     -0.001026      0.002355
     -5.18865      3.69998     10.59604         0.002065     -0.001593     -0.002626
     -1.68699      8.54895      2.03404        -0.001406     -0.003367     -0.004258
     -2.63405      7.41841      4.21944        -0.001121     -0.001365      0.000279
     -3.45574      6.13457      6.35509         0.001767      0.000912      0.000789
     -4.31283      4.90421      8.49029         0.001905     -0.000610     -0.002183
      0.88621     -6.12539     10.61736         0.000253     -0.000885      0.002280
     -0.02406     11.02275      2.09415        -0.002424     -0.001120      0.000870
     -1.02468      9.77833      4.15222        -0.006882      0.003214     -0.003940
     -1.79485      8.49934      6.34594         0.004794      0.002714      0.002233
      1.74824     -4.88420      8.50851        -0.000350      0.001219     -0.000632
      4.31791      2.45190      0.01312         0.000954      0.000911      0.000257
      3.47596      1.23275      2.10272         0.000615      0.000586      0.000157
      2.64925      0.10625      4.22460        -0.001472      0.005322     -0.004156
      1.61798     -1.26664      6.25931        -0.004027      0.001068     -0.007469
      0.80196     -2.45825      8.49617         0.002433     -0.002254     -0.005221
      3.45393      4.90418      0.01805         0.000268      0.000527      0.000611
      2.60302      3.67912      2.12405         0.002698      0.003427      0.000255
      1.72328      2.47221      4.24909         0.000777      0.000637      0.000074
      0.85748      1.22289      6.35768        -0.000512     -0.002266     -0.001413
      0.01660      0.00436      8.51030         0.001772     -0.002036     -0.001705
      2.61225      7.35615      0.00865        -0.001181     -0.000873     -0.000517
      1.74444      6.11297      2.11144         0.001036      0.000176     -0.000132
      0.87239      4.88837      4.23253         0.000958      0.001000      0.000202
     -0.00002      3.67817      6.35970         0.001748     -0.001749      0.000677
     -0.85220      2.45703      8.50189        -0.000164     -0.000378      0.000782
     -2.56819      3.67045     10.60350         0.000431     -0.000835     -0.000013
      0.87924      8.57100      2.11097        -0.001801      0.000427      0.002504
     -0.03150      7.30789      4.17369        -0.004487      0.002867      0.003363
     -0.84979      6.12958      6.34692        -0.000071      0.000878     -0.001080
     -1.71767      4.90979      8.48105         0.001055      0.001029      0.000263
      3.44964     12.23174     -0.00529        -0.000474     -0.003216     -0.000432
      6.96697     -1.22302      2.12115        -0.002068     -0.002076      0.001313
      1.73438      9.79134      4.10139         0.000939     -0.000274     -0.000117
      4.43193     -4.95114      8.59964        -0.001694      0.001120     -0.002011
      6.95951      2.43114      0.04875        -0.000488     -0.001684      0.000407
      6.06638      1.23479      2.12363        -0.000558     -0.000680      0.001196
      5.23753      0.02296      4.20947         0.001143      0.001019      0.000144
      4.12164     -1.12058      6.13470        -0.001460      0.001701     -0.002218
      6.07936      4.89109      0.00666        -0.001276     -0.001897     -0.000729
      5.19934      3.69429      2.11320         0.000597      0.002139      0.001964
      4.36001      2.50783      4.23476         0.001893      0.000880      0.001037
      3.46038      1.27963      6.38574         0.001108      0.001287      0.000415
      2.50231      0.07180      8.50421         0.000083      0.000339      0.000865
      5.20457      7.35888      0.02228         0.000542     -0.000110      0.003300
      4.34320      6.13412      2.12747        -0.000212      0.000041     -0.000289
      3.46657      4.91938      4.23501         0.002837      0.000670     -0.000847
      2.60482      3.68260      6.36293         0.000549     -0.001220      0.000008
      1.74438      2.46992      8.51663        -0.000403     -0.003088     -0.000383
      4.34287      9.80557      0.00757        -0.000056     -0.001180      0.000578
      3.48873      8.57219      2.12365         0.002755     -0.001650      0.000378
      2.60404      7.34840      4.26263        -0.001882     -0.001363     -0.000007
      1.77194      6.09940      6.40133        -0.000601     -0.001642      0.000554
      0.87116      4.87877      8.49584        -0.001976     -0.002128      0.001544
      6.11445     -6.08097     10.62533        -0.000655     -0.002643      0.001111
      9.56748     -1.22888      2.15207         0.003595     -0.000050     -0.000154
      8.71314     -2.44744      4.28015         0.002776     -0.000802      0.000513
      7.90455     -3.72919      6.48653        -0.002123     -0.002491      0.000077
      8.72961      1.25437      2.08424        -0.001150     -0.000218     -0.000709
      7.87173      0.02546      4.20808         0.001694      0.001297     -0.001076
      8.74702      4.85172      0.11160        -0.001649     -0.002660     -0.000470
      7.80495      3.68986      2.15711        -0.003273     -0.002008     -0.000083
      6.97356      2.47206      4.24407        -0.001337     -0.000034      0.001749
      6.09617      1.35056      6.32012        -0.000742     -0.002291      0.000690
      7.81916      7.36108      0.03160         0.000995      0.000476      0.002808
      6.94778      6.14317      2.11685         0.001297     -0.001055      0.003041
      6.06995      4.90255      4.24843         0.001408     -0.000556      0.001513
      5.22187      3.71067      6.38923         0.001033     -0.001489     -0.001108
      4.33856      2.52375      8.53480         0.000449      0.002459      0.000810
      6.94086      9.80496      0.02552         0.001068      0.001790      0.003194
      6.10698      8.58746      2.15148         0.004834      0.000169      0.003916
      5.20683      7.37420      4.24887         0.002338     -0.001683      0.001773
      4.36875      6.11966      6.36495        -0.002137     -0.002651     -0.001622
      3.46962      4.97384      8.52581        -0.000956     -0.000267     -0.000760
     -0.82412      2.42826      0.04839        -0.000621      0.000141     -0.000457
     -4.21345     -2.47441      8.54455        -0.000950     -0.000907      0.001296
     -1.67167      4.90492      0.08866         0.000350     -0.001771     -0.000261
      2.67229      7.27202      8.54353        -0.003342     -0.004372      0.000877
      9.56153      2.40046      0.10680        -0.002369     -0.004994     -0.000224
      5.19177     -3.63630      6.34311         0.001502      0.003734     -0.000297
      3.46246     -2.41348      8.46088         0.002008      0.003396     -0.000977
      6.92249     -1.21812      6.35400         0.001330     -0.002036     -0.000664
      6.25841     -2.58055      8.72242        -0.000663     -0.001861      0.000452
      5.18832      0.00820      8.47768        -0.001023     -0.000354      0.002329
 -----------------------------------------------------------------------------------
    total drift:                                0.001101     -0.000664     -0.012762


--------------------------------------------------------------------------------------------------------



  FREE ENERGIE OF THE ION-ELECTRON SYSTEM (eV)
  ---------------------------------------------------
  free  energy   TOTEN  =     -1104.49639404 eV

  energy  without entropy=    -1104.49650463  energy(sigma->0) =    -1104.49643091
 


--------------------------------------------------------------------------------------------------------


    POTLOK:  cpu time      0.1969: real time      0.1001


--------------------------------------------------------------------------------------------------------


     LOOP+:  cpu time   3654.2812: real time   3662.8976
    4ORBIT:  cpu time      0.0000: real time      0.0000

 total amount of memory used by VASP MPI-rank0  6702056. kBytes
=======================================================================

   base      :      30000. kBytes
   nonl-proj :     799080. kBytes
   fftplans  :      67629. kBytes
   grid      :     159195. kBytes
   one-center:       1928. kBytes
   wavefun   :    5644224. kBytes
 
  
  
 General timing and accounting informations for this job:
 ========================================================
  
                  Total CPU time used (sec):     3743.521
                            User time (sec):     3102.135
                          System time (sec):      641.385
                         Elapsed time (sec):     3749.640
  
                   Maximum memory used (kb):     8742044.
                   Average memory used (kb):          N/A
  
                          Minor page faults:     13148956
                          Major page faults:           11
                 Voluntary context switches:       710279
