 vasp.6.4.2 20Jul23 (build Sep 20 2024 16:56:05) complex                         
 executed on              LinuxNV date 2025.04.25  16:37:19
 running    4 mpi-ranks, with    8 threads/rank, on    1 nodes
 distrk:  each k-point on    4 cores,    1 groups
 distr:  one band on NCORE=   1 cores,    4 groups
 OpenACC runtime initialized ...    4 GPUs detected


--------------------------------------------------------------------------------------------------------


 INCAR:
   ENCUT = 520.000000
   POTIM = 0.200000
   SIGMA = 0.200000
   EDIFF = 1.00e-06
   EDIFFG = -1.00e-02
   ALGO = Normal
   GGA = PE
   PREC = Accurate
   IBRION = 2
   ISIF = 2
   ISMEAR = 1
   LORBIT = 11
   NELM = 100
   NSW = -1
   LCHARG = .TRUE.
   LWAVE = .FALSE.
   LREAL = .FALSE.

 POTCAR:    PAW_PBE Cr_pv 02Aug2007               
 POTCAR:    PAW_PBE Ti_pv 07Sep2000               
 POTCAR:    PAW_PBE V_pv 07Sep2000                
 POTCAR:    PAW_PBE W_sv 04Sep2015                
 POTCAR:    PAW_PBE Zr_sv 04Jan2005               
 POTCAR:    PAW_PBE Cr_pv 02Aug2007               
   SHA256 =  c9a7df34d3cdbacf1090e328ef39c0b420964e11c23f63548d1ac9dd218cdba0 Cr_pv/POTCAR          
   COPYR  = (c) Copyright 02Aug2007 Georg Kresse                                                    
   COPYR  = This file is part of the software VASP. Any use, copying, and all other rights are regul
   COPYR  = If you do not have a valid VASP license, you may not use, copy or distribute this file. 
   VRHFIN =Cr : p6d5s1                                                                              
   LEXCH  = PE                                                                                      
   EATOM  =  1647.9177 eV,  121.1185 Ry                                                             
                                                                                                    
   TITEL  = PAW_PBE Cr_pv 02Aug2007                                                                 
   LULTRA =        F    use ultrasoft PP ?                                                          
   IUNSCR =        1    unscreen: 0-lin 1-nonlin 2-no                                               
   RPACOR =    2.080    partial core radius                                                         
   POMASS =   51.996; ZVAL   =   12.000    mass and valenz                                          
   RCORE  =    2.300    outmost cutoff radius                                                       
   RWIGS  =    2.500; RWIGS  =    1.323    wigner-seitz radius (au A)                               
   ENMAX  =  265.681; ENMIN  =  199.261 eV                                                          
   ICORE  =        3    local potential                                                             
   LCOR   =        T    correct aug charges                                                         
   LPAW   =        T    paw PP                                                                      
   EAUG   =  519.424                                                                                
   DEXC   =    0.000                                                                                
   RMAX   =    2.356    core radius for proj-oper                                                   
   RAUG   =    1.300    factor for augmentation sphere                                              
   RDEP   =    2.447    radius for radial grids                                                     
   RDEPT  =    1.882    core radius for aug-charge                                                  
                                                                                                    
   Atomic configuration                                                                             
    8 entries                                                                                       
     n  l   j            E        occ.                                                              
     1  0  0.50     -5880.4963   2.0000                                                             
     2  0  0.50      -667.0865   2.0000                                                             
     2  1  1.50      -560.6250   6.0000                                                             
     3  0  0.50       -73.9860   2.0000                                                             
     3  1  1.50       -45.4378   6.0000                                                             
     3  2  2.50        -2.9137   5.0000                                                             
     4  0  0.50        -4.0071   1.0000                                                             
     4  3  2.50        -1.3606   0.0000                                                             
   Description                                                                                      
     l       E           TYP  RCUT    TYP  RCUT                                                     
     1    -45.4377911     23  2.000                                                                 
     1      1.3605826     23  2.000                                                                 
     2     -2.9136672     23  2.300                                                                 
     2     -4.2742498     23  2.300                                                                 
     0     -4.0071320     23  2.300                                                                 
     0      9.4498803     23  2.300                                                                 
     3      2.7211652     23  2.300                                                                 
  local pseudopotential read in
  partial core-charges read in
  partial kinetic energy density read in
  atomic valenz-charges read in
  non local Contribution for L=            1  read in
    real space projection operators read in
  non local Contribution for L=            1  read in
    real space projection operators read in
  non local Contribution for L=            2  read in
    real space projection operators read in
  non local Contribution for L=            2  read in
    real space projection operators read in
  non local Contribution for L=            0  read in
    real space projection operators read in
  non local Contribution for L=            0  read in
    real space projection operators read in
    PAW grid and wavefunctions read in
 
   number of l-projection  operators is LMAX  =            6
   number of lm-projection operators is LMMAX =           18
 
 POTCAR:    PAW_PBE Ti_pv 07Sep2000               
   SHA256 =  f757a1b2c6d082f4c628fa3d987464a8763bf92e53844ac0500b0e2ddc9ce5c0 Ti_pv/POTCAR          
   COPYR  = (c) Copyright 07Sep2000 Georg Kresse                                                    
   COPYR  = This file is part of the software VASP. Any use, copying, and all other rights are regul
   COPYR  = If you do not have a valid VASP license, you may not use, copy or distribute this file. 
   VRHFIN =Ti: d3 s1                                                                                
   LEXCH  = PE                                                                                      
   EATOM  =  1042.5995 eV,   76.6289 Ry                                                             
                                                                                                    
   TITEL  = PAW_PBE Ti_pv 07Sep2000                                                                 
   LULTRA =        F    use ultrasoft PP ?                                                          
   IUNSCR =        1    unscreen: 0-lin 1-nonlin 2-no                                               
   RPACOR =    2.200    partial core radius                                                         
   POMASS =   47.880; ZVAL   =   10.000    mass and valenz                                          
   RCORE  =    2.500    outmost cutoff radius                                                       
   RWIGS  =    2.500; RWIGS  =    1.323    wigner-seitz radius (au A)                               
   ENMAX  =  222.335; ENMIN  =  166.751 eV                                                          
   RCLOC  =    1.701    cutoff for local pot                                                        
   LCOR   =        T    correct aug charges                                                         
   LPAW   =        T    paw PP                                                                      
   EAUG   =  482.848                                                                                
   DEXC   =    0.000                                                                                
   RMAX   =    2.564    core radius for proj-oper                                                   
   RAUG   =    1.300    factor for augmentation sphere                                              
   RDEP   =    2.538    radius for radial grids                                                     
   RDEPT  =    1.952    core radius for aug-charge                                                  
                                                                                                    
   Atomic configuration                                                                             
    8 entries                                                                                       
     n  l   j            E        occ.                                                              
     1  0  0.50     -4865.3608   2.0000                                                             
     2  0  0.50      -533.1368   2.0000                                                             
     2  1  1.50      -440.5031   6.0000                                                             
     3  0  0.50       -59.3186   2.0000                                                             
     3  1  1.50       -35.7012   6.0000                                                             
     3  2  2.50        -1.9157   3.0000                                                             
     4  0  0.50        -3.7291   1.0000                                                             
     4  3  2.50        -1.3606   0.0000                                                             
   Description                                                                                      
     l       E           TYP  RCUT    TYP  RCUT                                                     
     1    -35.7012140     23  2.300                                                                 
     1     -1.3605826     23  2.300                                                                 
     2     -1.9156996     23  2.500                                                                 
     2     -0.4063033     23  2.500                                                                 
     0     -3.7290856     23  2.500                                                                 
     0     20.4087390     23  2.500                                                                 
  local pseudopotential read in
  partial core-charges read in
  partial kinetic energy density read in
  atomic valenz-charges read in
  non local Contribution for L=            1  read in
    real space projection operators read in
  non local Contribution for L=            1  read in
    real space projection operators read in
  non local Contribution for L=            2  read in
    real space projection operators read in
  non local Contribution for L=            2  read in
    real space projection operators read in
  non local Contribution for L=            0  read in
    real space projection operators read in
  non local Contribution for L=            0  read in
    real space projection operators read in
    PAW grid and wavefunctions read in
 
   number of l-projection  operators is LMAX  =            6
   number of lm-projection operators is LMMAX =           18
 
 POTCAR:    PAW_PBE V_pv 07Sep2000                
   SHA256 =  1175d3c8cb4ffd1d150a520fa74fae5c3ec72c0849b5615a94a5372dd2cf07f7 V_pv/POTCAR           
   COPYR  = (c) Copyright 07Sep2000 Georg Kresse                                                    
   COPYR  = This file is part of the software VASP. Any use, copying, and all other rights are regul
   COPYR  = If you do not have a valid VASP license, you may not use, copy or distribute this file. 
   VRHFIN =V: p6 d4 s1                                                                              
   LEXCH  = PE                                                                                      
   EATOM  =  1321.6206 eV,   97.1364 Ry                                                             
                                                                                                    
   TITEL  = PAW_PBE V_pv 07Sep2000                                                                  
   LULTRA =        F    use ultrasoft PP ?                                                          
   IUNSCR =        1    unscreen: 0-lin 1-nonlin 2-no                                               
   RPACOR =    1.700    partial core radius                                                         
   POMASS =   50.941; ZVAL   =   11.000    mass and valenz                                          
   RCORE  =    2.300    outmost cutoff radius                                                       
   RWIGS  =    2.300; RWIGS  =    1.217    wigner-seitz radius (au A)                               
   ENMAX  =  263.673; ENMIN  =  197.755 eV                                                          
   RCLOC  =    1.779    cutoff for local pot                                                        
   LCOR   =        T    correct aug charges                                                         
   LPAW   =        T    paw PP                                                                      
   EAUG   =  598.473                                                                                
   DEXC   =    0.000                                                                                
   RMAX   =    2.359    core radius for proj-oper                                                   
   RAUG   =    1.300    factor for augmentation sphere                                              
   RDEP   =    2.430    radius for radial grids                                                     
   RDEPT  =    1.700    core radius for aug-charge                                                  
                                                                                                    
   Atomic configuration                                                                             
    8 entries                                                                                       
     n  l   j            E        occ.                                                              
     1  0  0.50     -5360.7193   2.0000                                                             
     2  0  0.50      -598.4546   2.0000                                                             
     2  1  1.50      -499.0155   6.0000                                                             
     3  0  0.50       -66.5711   2.0000                                                             
     3  1  1.50       -40.5282   6.0000                                                             
     3  2  2.50        -2.4291   4.0000                                                             
     4  0  0.50        -3.8743   1.0000                                                             
     4  3  2.50        -1.3606   0.0000                                                             
   Description                                                                                      
     l       E           TYP  RCUT    TYP  RCUT                                                     
     1    -40.5282431     23  2.000                                                                 
     1      5.4423304     23  2.000                                                                 
     2     -2.4290905     23  2.300                                                                 
     2     -1.0472488     23  2.300                                                                 
     0     -3.8742754     23  2.300                                                                 
     0     27.2116520     23  2.300                                                                 
  local pseudopotential read in
  partial core-charges read in
  partial kinetic energy density read in
  atomic valenz-charges read in
  non local Contribution for L=            1  read in
    real space projection operators read in
  non local Contribution for L=            1  read in
    real space projection operators read in
  non local Contribution for L=            2  read in
    real space projection operators read in
  non local Contribution for L=            2  read in
    real space projection operators read in
  non local Contribution for L=            0  read in
    real space projection operators read in
  non local Contribution for L=            0  read in
    real space projection operators read in
    PAW grid and wavefunctions read in
 
   number of l-projection  operators is LMAX  =            6
   number of lm-projection operators is LMMAX =           18
 
 POTCAR:    PAW_PBE W_sv 04Sep2015                
   SHA256 =  931c2d770f65867ef30f3db3421922900fc0890ebac5c3e12f63b6a2064023d7 W_sv/POTCAR           
   COPYR  = (c) Copyright 04Sep2015 Georg Kresse                                                    
   COPYR  = This file is part of the software VASP. Any use, copying, and all other rights are regul
   COPYR  = If you do not have a valid VASP license, you may not use, copy or distribute this file. 
   VRHFIN =W : 5p6s5d                                                                               
   LEXCH  = PE                                                                                      
   EATOM  =  1865.5791 eV,  137.1162 Ry                                                             
                                                                                                    
   TITEL  = PAW_PBE W_sv 04Sep2015                                                                  
   LULTRA =        F    use ultrasoft PP ?                                                          
   IUNSCR =        1    unscreen: 0-lin 1-nonlin 2-no                                               
   RPACOR =    2.330    partial core radius                                                         
   POMASS =  183.850; ZVAL   =   14.000    mass and valenz                                          
   RCORE  =    2.500    outmost cutoff radius                                                       
   RWIGS  =    2.750; RWIGS  =    1.455    wigner-seitz radius (au A)                               
   ENMAX  =  223.057; ENMIN  =  167.293 eV                                                          
   ICORE  =        3    local potential                                                             
   LCOR   =        T    correct aug charges                                                         
   LPAW   =        T    paw PP                                                                      
   EAUG   =  373.438                                                                                
   DEXC   =    0.000                                                                                
   RMAX   =    2.565    core radius for proj-oper                                                   
   RAUG   =    1.300    factor for augmentation sphere                                              
   RDEP   =    2.539    radius for radial grids                                                     
   RDEPT  =    2.126    core radius for aug-charge                                                  
                                                                                                    
   Atomic configuration                                                                             
   15 entries                                                                                       
     n  l   j            E        occ.                                                              
     1  0  0.50    -69465.5834   2.0000                                                             
     2  0  0.50    -11986.2640   2.0000                                                             
     2  1  1.50    -10479.8613   6.0000                                                             
     3  0  0.50     -2759.0756   2.0000                                                             
     3  1  1.50     -2313.1855   6.0000                                                             
     3  2  2.50     -1801.1183  10.0000                                                             
     4  0  0.50      -567.6789   2.0000                                                             
     4  1  1.50      -421.4692   6.0000                                                             
     4  2  2.50      -236.3471  10.0000                                                             
     4  3  3.50       -31.2665  14.0000                                                             
     5  0  0.50       -77.1084   2.0000                                                             
     6  0  0.50        -5.1438   1.0000                                                             
     5  1  1.50       -41.3856   6.0000                                                             
     5  2  2.50        -3.3185   5.0000                                                             
     5  3  2.50        -1.3606   0.0000                                                             
   Description                                                                                      
     l       E           TYP  RCUT    TYP  RCUT                                                     
     0    -77.1084470     23  2.100                                                                 
     0     -5.1437956     23  2.300                                                                 
     1    -41.3855615     23  2.500                                                                 
     1     -2.7211652     23  2.500                                                                 
     2     -3.3185025     23  2.500                                                                 
     2     -1.5965151     23  2.500                                                                 
     3     -1.3605826     23  2.500                                                                 
  local pseudopotential read in
  partial core-charges read in
  partial kinetic energy density read in
  kinetic energy density of atom read in
  atomic valenz-charges read in
  non local Contribution for L=            0  read in
    real space projection operators read in
  non local Contribution for L=            0  read in
    real space projection operators read in
  non local Contribution for L=            1  read in
    real space projection operators read in
  non local Contribution for L=            1  read in
    real space projection operators read in
  non local Contribution for L=            2  read in
    real space projection operators read in
  non local Contribution for L=            2  read in
    real space projection operators read in
    PAW grid and wavefunctions read in
 
   number of l-projection  operators is LMAX  =            6
   number of lm-projection operators is LMMAX =           18
 
 POTCAR:    PAW_PBE Zr_sv 04Jan2005               
   SHA256 =  25aed69cb10325f9d37c5c68912b61a17387d1f8e4f1d804860ffa10c8a4bf76 Zr_sv/POTCAR          
   COPYR  = (c) Copyright 04Jan2005 Georg Kresse                                                    
   COPYR  = This file is part of the software VASP. Any use, copying, and all other rights are regul
   COPYR  = If you do not have a valid VASP license, you may not use, copy or distribute this file. 
   VRHFIN =Zr: 4s4p5s4d                                                                             
   LEXCH  = PE                                                                                      
   EATOM  =  1284.2219 eV,   94.3876 Ry                                                             
                                                                                                    
   TITEL  = PAW_PBE Zr_sv 04Jan2005                                                                 
   LULTRA =        F    use ultrasoft PP ?                                                          
   IUNSCR =        1    unscreen: 0-lin 1-nonlin 2-no                                               
   RPACOR =    2.200    partial core radius                                                         
   POMASS =   91.224; ZVAL   =   12.000    mass and valenz                                          
   RCORE  =    2.500    outmost cutoff radius                                                       
   RWIGS  =    3.070; RWIGS  =    1.625    wigner-seitz radius (au A)                               
   ENMAX  =  229.898; ENMIN  =  172.424 eV                                                          
   ICORE  =        3    local potential                                                             
   LCOR   =        T    correct aug charges                                                         
   LPAW   =        T    paw PP                                                                      
   EAUG   =  461.257                                                                                
   DEXC   =    0.000                                                                                
   RMAX   =    2.561    core radius for proj-oper                                                   
   RAUG   =    1.300    factor for augmentation sphere                                              
   RDEP   =    2.597    radius for radial grids                                                     
   RDEPT  =    2.007    core radius for aug-charge                                                  
                                                                                                    
   Atomic configuration                                                                             
   11 entries                                                                                       
     n  l   j            E        occ.                                                              
     1  0  0.50    -17820.0161   2.0000                                                             
     2  0  0.50     -2467.0882   2.0000                                                             
     2  1  1.50     -2199.6095   6.0000                                                             
     3  0  0.50      -402.4863   2.0000                                                             
     3  1  1.50      -315.3675   6.0000                                                             
     3  2  2.50      -172.4472  10.0000                                                             
     4  0  0.50       -52.4146   2.0000                                                             
     5  0  0.50        -3.8421   1.0000                                                             
     4  1  1.50       -30.5054   6.0000                                                             
     4  2  2.50        -2.3341   3.0000                                                             
     4  3  2.50        -1.3606   0.0000                                                             
   Description                                                                                      
     l       E           TYP  RCUT    TYP  RCUT                                                     
     0    -52.4145962     23  2.200                                                                 
     0     -3.8421270     23  2.500                                                                 
     1    -30.5053914     23  2.200                                                                 
     1     20.4087390     23  2.200                                                                 
     2     -2.3340816     23  2.500                                                                 
     2     -0.6120942     23  2.500                                                                 
     3     -4.0817478     23  2.500                                                                 
  local pseudopotential read in
  partial core-charges read in
  partial kinetic energy density read in
  atomic valenz-charges read in
  non local Contribution for L=            0  read in
    real space projection operators read in
  non local Contribution for L=            0  read in
    real space projection operators read in
  non local Contribution for L=            1  read in
    real space projection operators read in
  non local Contribution for L=            1  read in
    real space projection operators read in
  non local Contribution for L=            2  read in
    real space projection operators read in
  non local Contribution for L=            2  read in
    real space projection operators read in
    PAW grid and wavefunctions read in
 
   number of l-projection  operators is LMAX  =            6
   number of lm-projection operators is LMMAX =           18
 
 -----------------------------------------------------------------------------
|                                                                             |
|               ----> ADVICE to this user running VASP <----                  |
|                                                                             |
|     You have a (more or less) 'large supercell' and for larger cells it     |
|     might be more efficient to use real-space projection operators.         |
|     Therefore, try LREAL= Auto in the INCAR file.                           |
|     Mind: For very accurate calculation, you might also keep the            |
|     reciprocal projection scheme (i.e. LREAL=.FALSE.).                      |
|                                                                             |
 -----------------------------------------------------------------------------

  PAW_PBE Cr_pv 02Aug2007               :
 energy of atom  1       EATOM=-1647.9177
 kinetic energy error for atom=    0.0057 (will be added to EATOM!!)
  PAW_PBE Ti_pv 07Sep2000               :
 energy of atom  2       EATOM=-1042.5995
 kinetic energy error for atom=    0.0019 (will be added to EATOM!!)
  PAW_PBE V_pv 07Sep2000                :
 energy of atom  3       EATOM=-1321.6206
 kinetic energy error for atom=    0.0054 (will be added to EATOM!!)
  PAW_PBE W_sv 04Sep2015                :
 energy of atom  4       EATOM=-1865.5791
 kinetic energy error for atom=    0.0026 (will be added to EATOM!!)
  PAW_PBE Zr_sv 04Jan2005               :
 energy of atom  5       EATOM=-1284.2219
 kinetic energy error for atom=    0.0043 (will be added to EATOM!!)
 
 
 POSCAR: Cr Ti V  W  Zr
  positions in cartesian coordinates
  No initial velocities read in
 exchange correlation table for  LEXCH =        8
   RHO(1)=    0.500       N(1)  =     2000
   RHO(2)=  100.500       N(2)  =     4000
 


--------------------------------------------------------------------------------------------------------


 ion  position               nearest neighbor table
   1  0.997  0.996  0.196-  35 2.46 118 2.55  22 2.55  17 2.55  45 2.59  18 2.59  40 2.60 103 2.63
                           102 2.94  23 2.95  41 2.98  34 2.99 119 2.99  44 3.05
   2  0.393  0.196  0.193-  39 2.49  66 2.56  44 2.57  71 2.59  67 2.60  63 2.60  14 2.62   3 2.64
                            43 2.98  62 2.99  40 3.02  12 3.05  13 3.07
   3  0.595  0.197  0.193-  62 2.48  87 2.51  84 2.51 111 2.54  13 2.61   2 2.64 107 2.65  12 2.72
                            83 2.99  66 3.02  63 3.03  14 3.12 124 3.20
   4  0.800  0.403  0.801- 109 2.46 112 2.49  88 2.49  31 2.54 117 2.59 108 2.62  92 2.64  30 2.65
                            33 3.01  91 3.02  16 3.03  89 3.04
   5  1.000  0.604  0.196-  31 2.64  32 2.67 109 2.67  35 2.68  59 2.68 114 2.69  54 2.69  27 2.71
                            58 2.95  36 2.96 110 2.98  55 3.01 113 3.04  26 3.04
   6  0.987  0.596  0.598- 116 2.62  33 2.66  37 2.69 111 2.69  32 2.70  29 2.70  61 2.76   8 2.76
                           115 2.94 112 2.96  38 3.02
   7  0.200  0.002  0.600-  60 2.62  46 2.63  64 2.66  36 2.67  19 2.67  69 2.67  41 2.69  42 2.70
                            37 2.96  59 2.99  68 2.99  47 3.01  65 3.04
   8  0.195  0.592  0.593-  28 2.62  82 2.65  51 2.66  60 2.68  55 2.69  56 2.72  10 2.74   6 2.76
                            29 2.92  32 3.01  50 3.01
   9  0.402  1.000  0.398-  58 2.66  80 2.66  64 2.67  41 2.68  63 2.71  85 2.72  67 2.73  88 2.76
                            12 2.89  59 2.98  79 3.03
  10  0.413  0.606  0.608-  96 2.59  73 2.67  98 2.67  78 2.68  81 2.69  77 2.70   8 2.74  50 2.78
                           101 2.91  97 2.94  72 2.97
  11  0.426  0.798  0.998-  82 2.60  84 2.61  75 2.66  56 2.71  79 2.77  78 2.77  62 2.79  99 2.80
                            83 2.82  57 2.97
  12  0.590  0.193  0.397-  67 2.64  63 2.66  14 2.69   3 2.72  88 2.75 112 2.80  85 2.81 124 2.81
                             9 2.89  84 2.90   2 3.05
  13  0.599  0.398  0.195-   3 2.61  66 2.63  90 2.65 110 2.68  94 2.69  71 2.69 115 2.70  14 2.70
                           111 2.81  87 2.90  70 2.98 114 2.98   2 3.07
  14  0.589  0.399  0.397-  72 2.60   2 2.62  91 2.67  95 2.67 111 2.69  12 2.69  13 2.70 116 2.73
                            67 2.94  71 2.95  96 2.97   3 3.12
  15  0.804  0.204  0.001- 108 2.58 107 2.60  27 2.63 123 2.67  21 2.69 102 2.69 109 2.71  87 2.73
                           110 2.95  26 2.98  89 3.03 106 3.04
  16  0.800  0.195  0.609- 108 2.50 105 2.63  88 2.67  30 2.67 124 2.75  24 2.75  85 2.76 112 2.77
                            86 2.92  25 2.95   4 3.03
  17  0.999  0.996  0.002- 102 2.54   1 2.55  34 2.55 122 2.57  44 2.60  21 2.62  20 2.62  39 2.63

  18  0.997  0.997  0.394- 119 2.53  23 2.54 104 2.56   1 2.59  41 2.60  36 2.64  46 2.67  19 2.71

  19  0.995  0.998  0.600-  24 2.53  37 2.53 105 2.55 120 2.60  47 2.63  20 2.64   7 2.67  18 2.71

  20  0.999  0.998  0.803-  38 2.58 121 2.59  43 2.59 106 2.60  25 2.61  42 2.62  17 2.62  19 2.64

  21  0.005  0.197  0.998-  43 2.51  25 2.57  49 2.60 106 2.62  17 2.62  26 2.66  22 2.66  15 2.69

  22  0.999  0.192  0.197- 102 2.53   1 2.55  23 2.56  50 2.61  44 2.61 107 2.65  21 2.66  27 2.68

  23  0.010  0.196  0.397-  45 2.46  18 2.54  22 2.56  51 2.60  28 2.70 124 2.70  24 2.72 103 2.78
                             1 2.95
  24  0.008  0.196  0.604-  46 2.52  19 2.53  52 2.57  25 2.61  29 2.67 104 2.70  23 2.72  16 2.75
                            47 2.91 124 3.06
  25  0.000  0.198  0.801-  21 2.57  48 2.60  20 2.61  47 2.61  24 2.61 108 2.63 105 2.63  30 2.65
                            16 2.95
  26  0.002  0.400  0.000-  30 2.55 108 2.58  48 2.61  54 2.61  27 2.62  31 2.65  21 2.66 109 2.68
                            15 2.98   5 3.04
  27  0.009  0.402  0.203-  55 2.51  28 2.51  49 2.54  26 2.62  15 2.63 110 2.65  22 2.68   5 2.71

  28  0.996  0.395  0.387-  27 2.51 107 2.55  50 2.61  32 2.62   8 2.62  23 2.70 111 2.73  29 2.91
                           124 2.92
  29  0.021  0.411  0.622-  56 2.39  30 2.55  51 2.58 124 2.66  24 2.67   6 2.70  52 2.84 112 2.86
                            28 2.91   8 2.92
  30  0.005  0.404  0.808-  53 2.55  26 2.55  29 2.55  33 2.63   4 2.65  25 2.65  52 2.65  16 2.67

  31  0.997  0.598  0.992-  33 2.47   4 2.54  34 2.60  58 2.61   5 2.64  53 2.64  26 2.65 113 2.68

  32  0.999  0.599  0.398-  36 2.59 110 2.60 115 2.61  28 2.62  55 2.63  60 2.64   5 2.67   6 2.70
                             8 3.01
  33  0.004  0.605  0.809-  31 2.47  57 2.54 112 2.60  38 2.62  30 2.63 117 2.64  56 2.65   6 2.66
                             4 3.01
  34  0.000  0.800  1.000-  35 2.55  17 2.55  40 2.57  38 2.58 117 2.59  31 2.60  57 2.64 118 2.69
                             1 2.99
  35  0.999  0.808  0.195-   1 2.46  41 2.54  34 2.55 119 2.56 113 2.60  58 2.65  36 2.68   5 2.68
                            40 2.91
  36  0.998  0.796  0.395-  32 2.59  59 2.62 114 2.62 120 2.63  18 2.64  37 2.66   7 2.67  35 2.68
                             5 2.96
  37  0.004  0.809  0.604-  19 2.53  42 2.57  60 2.61 115 2.62 121 2.64  36 2.66  38 2.67   6 2.69
                             7 2.96
  38  0.003  0.804  0.805-  20 2.58  34 2.58  39 2.61 116 2.61  33 2.62  61 2.63 122 2.66  37 2.67
                             6 3.02
  39  0.202  0.004  0.005-   2 2.49  40 2.58  42 2.59  43 2.60  38 2.61  17 2.63  57 2.65  62 2.69
                            63 2.88
  40  0.196  0.997  0.197-  34 2.57  41 2.57  39 2.58  67 2.60   1 2.60  44 2.60  58 2.62  63 2.62
                            35 2.91   2 3.02
  41  0.195  0.998  0.393-  35 2.54  45 2.56  40 2.57  59 2.57  18 2.60  68 2.65   9 2.68   7 2.69
                             1 2.98
  42  0.200  0.000  0.806-  66 2.53  37 2.57  61 2.57  39 2.59  65 2.62  47 2.62  20 2.62   7 2.70

  43  0.197  0.199  0.999-  21 2.51  66 2.55  48 2.57  20 2.59  44 2.59  71 2.60  39 2.60  47 2.61
                             2 2.98
  44  0.199  0.198  0.196-   2 2.57  43 2.59  17 2.60  40 2.60  22 2.61  49 2.61  72 2.61  45 2.62
                            67 2.89   1 3.05
  45  0.195  0.194  0.394-  23 2.46  67 2.53  41 2.56   1 2.59  50 2.62  44 2.62  46 2.64  73 2.66

  46  0.200  0.203  0.599-  51 2.49  24 2.52  68 2.60  74 2.63   7 2.63  45 2.64  47 2.66  18 2.67

  47  0.199  0.198  0.800-  52 2.58  25 2.61  43 2.61  70 2.62  42 2.62  69 2.63  19 2.63  46 2.66
                            24 2.91   7 3.01
  48  0.199  0.397  0.001-  43 2.57  49 2.59  25 2.60  26 2.61  70 2.63  52 2.63  53 2.63  76 2.63
                            75 2.89
  49  0.200  0.398  0.199-  27 2.54  71 2.56  50 2.59  48 2.59  21 2.60  77 2.61  44 2.61  54 2.62

  50  0.197  0.395  0.394-  72 2.51  49 2.59  22 2.61  28 2.61  45 2.62  55 2.69  51 2.69  10 2.78
                             8 3.01
  51  0.205  0.395  0.601-  46 2.49  73 2.55  29 2.58  23 2.60  52 2.63   8 2.66  78 2.68  50 2.69

  52  0.202  0.397  0.801-  75 2.53  24 2.57  47 2.58  74 2.59  56 2.61  48 2.63  51 2.63  30 2.65
                            29 2.84
  53  0.201  0.599  0.002-  30 2.55  54 2.56  75 2.57  79 2.57  56 2.60  48 2.63  57 2.63  31 2.64

  54  0.204  0.600  0.198-  55 2.56  53 2.56  80 2.59  76 2.59  26 2.61  49 2.62  58 2.63   5 2.69

  55  0.198  0.600  0.391-  27 2.51  54 2.56  32 2.63  77 2.64  59 2.64  81 2.66  50 2.69   8 2.69
                             5 3.01
  56  0.202  0.598  0.804-  29 2.39  53 2.60  52 2.61  33 2.65  78 2.65  61 2.69  11 2.71   8 2.72

  57  0.202  0.800  0.001-  63 2.47  33 2.54  58 2.59  61 2.60  53 2.63  34 2.64  39 2.65  11 2.97

  58  0.196  0.797  0.195-  57 2.59  31 2.61  40 2.62  54 2.63  35 2.65  59 2.65   9 2.66  79 2.66
                             5 2.95
  59  0.205  0.808  0.403-  41 2.57  64 2.60  36 2.62  80 2.62  55 2.64  58 2.65  60 2.65   5 2.68
                             9 2.98   7 2.99
  60  0.200  0.801  0.602-  37 2.61  81 2.61   7 2.62  65 2.63  61 2.64  32 2.64  59 2.65   8 2.68
                            82 2.89
  61  0.204  0.805  0.805-  82 2.53  42 2.57  57 2.60  62 2.61  38 2.63  60 2.64  56 2.69   6 2.76

  62  0.406  0.005  0.003-   3 2.48  63 2.53  65 2.58  61 2.61  83 2.61  66 2.62  39 2.69  11 2.79
                             2 2.99
  63  0.391  0.993  0.186-  57 2.47  62 2.53  84 2.57   2 2.60  40 2.62  12 2.66  79 2.67   9 2.71
                            39 2.88   3 3.03
  64  0.405  0.004  0.604-  81 2.57  89 2.57  59 2.60  68 2.61  86 2.61  65 2.64   7 2.66   9 2.67
                           123 3.00
  65  0.400  0.004  0.804-  82 2.54  62 2.58  87 2.59  42 2.62  69 2.63  60 2.63  64 2.64 123 2.64
                             7 3.04
  66  0.391  0.198  0.998-  42 2.53  43 2.55   2 2.56  70 2.58  69 2.61  62 2.62  13 2.63  87 2.66
                             3 3.02
  67  0.391  0.203  0.393-  45 2.53  72 2.56   2 2.60  40 2.60  12 2.64  91 2.67  68 2.70   9 2.73
                            44 2.89  14 2.94
  68  0.398  0.199  0.599-  73 2.55  88 2.60  46 2.60  64 2.61  92 2.65  41 2.65  69 2.66  67 2.70
                             7 2.99
  69  0.404  0.207  0.806-  90 2.53  74 2.59  89 2.60  66 2.61  65 2.63  47 2.63  68 2.66   7 2.67

  70  0.400  0.399  1.000-  75 2.50  66 2.58  90 2.61  74 2.61  47 2.62  94 2.62  48 2.63  71 2.65
                            13 2.98
  71  0.395  0.397  0.199-  49 2.56   2 2.59  43 2.60  76 2.61  72 2.61  70 2.65  95 2.68  13 2.69
                            14 2.95
  72  0.393  0.402  0.399-  50 2.51  67 2.56  77 2.57  14 2.60  71 2.61  44 2.61  73 2.65  96 2.70
                            10 2.97
  73  0.399  0.395  0.601-  68 2.55  51 2.55  91 2.56  97 2.61  74 2.61  72 2.65  45 2.66  10 2.67

  74  0.401  0.402  0.803-  78 2.55  52 2.59  69 2.59  92 2.60  73 2.61  70 2.61  46 2.63  93 2.65

  75  0.392  0.587  0.001-  70 2.50  52 2.53  76 2.53  53 2.57  93 2.60  11 2.66  78 2.66  99 2.69
                            48 2.89  94 2.92
  76  0.401  0.599  0.201-  75 2.53  77 2.56 100 2.58  54 2.59  94 2.59  79 2.60  71 2.61  48 2.63

  77  0.401  0.600  0.396-  80 2.55  76 2.56  72 2.57  95 2.57  49 2.61 101 2.63  55 2.64  10 2.70

  78  0.406  0.601  0.808-  74 2.55  97 2.61  56 2.65  75 2.66  51 2.68  10 2.68  11 2.77  82 2.77
                            93 2.80  98 2.88
  79  0.400  0.796  0.198-  85 2.52  53 2.57  76 2.60  99 2.65  80 2.66  58 2.66  63 2.67  11 2.77
                             9 3.03
  80  0.399  0.796  0.400-  77 2.55  81 2.58  54 2.59  59 2.62  86 2.63 100 2.63  79 2.66   9 2.66

  81  0.399  0.803  0.599-  64 2.57  82 2.57  80 2.58 123 2.58  60 2.61 101 2.65  55 2.66  10 2.69

  82  0.392  0.803  0.793-  61 2.53  65 2.54  81 2.57  11 2.60  98 2.65   8 2.65  83 2.70  78 2.77
                            60 2.89 123 2.96
  83  0.604  0.999  0.005- 107 2.54  84 2.61  62 2.61 123 2.65 102 2.67  82 2.70  87 2.71  98 2.81
                            11 2.82 103 2.89   3 2.99
  84  0.597  0.010  0.204-   3 2.51  63 2.57  85 2.61  83 2.61  11 2.61  99 2.71 103 2.73 124 2.75
                            12 2.90
  85  0.600  0.980  0.392- 100 2.43  79 2.52 104 2.58  84 2.61  86 2.66   9 2.72  16 2.76  12 2.81
                            99 2.87 124 3.26
  86  0.601  0.999  0.600-  64 2.61 101 2.62  80 2.63 105 2.63 123 2.65 108 2.65  85 2.66  88 2.70
                            16 2.92
  87  0.597  0.203  0.004-   3 2.51  65 2.59 110 2.60  89 2.65  66 2.66  90 2.67  83 2.71  15 2.73
                            13 2.90 123 3.11
  88  0.605  0.211  0.617-   4 2.49  89 2.51  91 2.56  68 2.60  16 2.67  86 2.70  12 2.75   9 2.76
                            92 2.89
  89  0.599  0.202  0.803-  88 2.51 109 2.54  64 2.57  69 2.60  92 2.63  87 2.65 108 2.65 123 2.67
                            15 3.03   4 3.04
  90  0.599  0.405  0.995-  92 2.52  69 2.53 114 2.56  70 2.61 109 2.61  13 2.65  87 2.67  93 2.74

  91  0.596  0.399  0.603-  73 2.56  88 2.56  92 2.58 112 2.59  96 2.61 117 2.65  67 2.67  14 2.67
                             4 3.02
  92  0.599  0.403  0.802-  90 2.52  97 2.54  91 2.58  74 2.60 113 2.61  89 2.63   4 2.64  68 2.65
                           109 2.88  88 2.89
  93  0.598  0.616  1.000-  97 2.59 119 2.60  75 2.60  94 2.62  74 2.65 113 2.67  90 2.74  78 2.80
                            99 2.84 118 2.89
  94  0.599  0.605  0.196-  99 2.57 114 2.58  76 2.59 120 2.59  70 2.62  93 2.62  95 2.65  13 2.69
                            75 2.92
  95  0.600  0.607  0.399- 100 2.48  77 2.57 121 2.61  94 2.65  14 2.67  96 2.67 115 2.67  71 2.68

  96  0.607  0.602  0.603- 116 2.43 122 2.58  10 2.59 101 2.60  91 2.61  97 2.61  95 2.67  72 2.70
                            14 2.97
  97  0.600  0.596  0.798-  92 2.54 117 2.57  93 2.59  98 2.60  73 2.61  78 2.61  96 2.61 118 2.64
                            10 2.94
  98  0.603  0.804  0.827- 102 2.51  97 2.60  82 2.65  10 2.67 123 2.68 122 2.70  83 2.81 118 2.82
                            78 2.88 101 2.91
  99  0.602  0.801  0.194-  94 2.57 104 2.58 119 2.62  79 2.65  75 2.69  84 2.71 100 2.72  11 2.80
                            93 2.84  85 2.87 103 2.88
 100  0.599  0.797  0.399-  85 2.43  95 2.48  76 2.58 105 2.60 120 2.63  80 2.63 101 2.66  99 2.72

 101  0.600  0.799  0.603- 106 2.60  96 2.60  86 2.62 121 2.62  77 2.63  81 2.65 100 2.66  10 2.91
                            98 2.91 123 3.01
 102  0.806  0.999  0.001-  98 2.51  22 2.53  17 2.54 118 2.55 103 2.56 106 2.58  83 2.67  15 2.69
                             1 2.94 123 3.08
 103  0.791  0.987  0.187- 102 2.56 119 2.58   1 2.63 104 2.69 107 2.70  84 2.73  23 2.78 118 2.84
                            99 2.88  83 2.89 124 3.24
 104  0.801  0.990  0.397- 120 2.52  18 2.56  99 2.58  85 2.58 105 2.69 103 2.69  24 2.70 124 2.82
                           119 2.92
 105  0.800  0.992  0.602- 121 2.51  19 2.55 100 2.60 106 2.61  16 2.63  86 2.63  25 2.63 104 2.69

 106  0.800  0.997  0.802- 122 2.58 102 2.58 101 2.60  20 2.60 105 2.61  21 2.62 123 2.64 108 2.69
                            15 3.04
 107  0.798  0.198  0.195-  83 2.54  28 2.55  15 2.60 110 2.64   3 2.65  22 2.65 103 2.70 124 2.70

 108  0.802  0.204  0.803-  16 2.50  26 2.58  15 2.58   4 2.62  25 2.63  86 2.65  89 2.65 106 2.69
                           123 3.09
 109  0.795  0.404  0.987-   4 2.46  89 2.54 113 2.59  90 2.61   5 2.67 110 2.68  26 2.68  15 2.71
                            92 2.88
 110  0.804  0.402  0.194- 111 2.52  32 2.60  87 2.60 107 2.64 114 2.64  27 2.65 109 2.68  13 2.68
                            15 2.95   5 2.98
 111  0.787  0.400  0.379- 110 2.52 115 2.53   3 2.54   6 2.69  14 2.69 124 2.71  28 2.73  13 2.81

 112  0.800  0.409  0.614-   4 2.49  91 2.59  33 2.60 116 2.64  16 2.77  12 2.80  29 2.86 117 2.89
                             6 2.96 124 3.12
 113  0.798  0.606  0.999- 118 2.54 117 2.55 109 2.59  35 2.60 114 2.61  92 2.61  93 2.67  31 2.68
                             5 3.04
 114  0.793  0.599  0.194- 119 2.53  90 2.56  94 2.58 113 2.61  36 2.62 110 2.64 115 2.66   5 2.69
                            13 2.98
 115  0.804  0.606  0.403- 111 2.53 120 2.54  32 2.61  37 2.62 114 2.66  95 2.67  13 2.70 116 2.74
                             6 2.94
 116  0.795  0.608  0.609-  96 2.43 121 2.53 117 2.57  38 2.61   6 2.62 112 2.64  14 2.73 115 2.74
                           122 2.91
 117  0.800  0.602  0.804- 113 2.55 116 2.57  97 2.57  34 2.59   4 2.59 122 2.60  33 2.64  91 2.65
                           112 2.89
 118  0.797  0.802  0.003- 113 2.54   1 2.55 102 2.55 122 2.61 119 2.61  97 2.64  34 2.69  98 2.82
                           103 2.84  93 2.89
 119  0.804  0.800  0.204-  18 2.53 114 2.53  35 2.56 103 2.58 120 2.59  93 2.60 118 2.61  99 2.62
                           104 2.92   1 2.99
 120  0.799  0.797  0.398- 104 2.52 115 2.54 119 2.59  94 2.59  19 2.60 100 2.63  36 2.63 121 2.67

 121  0.801  0.801  0.604- 105 2.51 116 2.53  20 2.59  95 2.61 101 2.62  37 2.64 122 2.65 120 2.67

 122  0.800  0.801  0.805-  17 2.57 106 2.58  96 2.58 117 2.60 118 2.61 121 2.65  38 2.66  98 2.70
                           116 2.91
 123  0.598  0.997  0.800-  81 2.58 106 2.64  65 2.64  83 2.65  86 2.65  89 2.67  15 2.67  98 2.68
                            82 2.96  64 3.00 101 3.01 102 3.08 108 3.09  87 3.11
 124  0.816  0.215  0.412-  29 2.66  23 2.70 107 2.70 111 2.71  84 2.75  16 2.75  12 2.81 104 2.82
                            28 2.92  24 3.06 112 3.12   3 3.20 103 3.24  85 3.26
 
  LATTYP: Found a triclinic cell.
 ALAT       =    13.1213514486
 B/A-ratio  =     1.6340986829
 C/A-ratio  =     1.9098641834
 COS(alpha) =     0.0001373337
 COS(beta)  =     0.5223382268
 COS(gamma) =     0.8168369773
  
  Lattice vectors:
  
 A1 = (  -7.5784932810,  -7.5673202570,   7.5810268140)
 A2 = ( -15.1698261740,   0.0039430650,  15.1531463720)
 A3 = (  -7.5128275220, -22.6970494610,  -7.5103213480)


Analysis of symmetry for initial positions (statically):
=====================================================================
 Subroutine PRICEL returns:
 Original cell was already a primitive cell.
 

 Routine SETGRP: Setting up the symmetry group for a 
 triclinic supercell.


 Subroutine GETGRP returns: Found  1 space group operations
 (whereof  1 operations were pure point group operations)
 out of a pool of  2 trial point group operations.


The static configuration has the point symmetry C_1 .


Analysis of symmetry for dynamics (positions and initial velocities):
=====================================================================
 Subroutine PRICEL returns:
 Original cell was already a primitive cell.
 

 Routine SETGRP: Setting up the symmetry group for a 
 triclinic supercell.


 Subroutine GETGRP returns: Found  1 space group operations
 (whereof  1 operations were pure point group operations)
 out of a pool of  2 trial point group operations.


The dynamic configuration has the point symmetry C_1 .


 Subroutine INISYM returns: Found  1 space group operations
 (whereof  1 operations are pure point group operations),
 and found     1 'primitive' translations


----------------------------------------------------------------------------------------

                                     Primitive cell                                     

  volume of cell :    1727.8235

  direct lattice vectors                    reciprocal lattice vectors
    -7.591332893  7.571263322  7.572119558     0.000287796  0.066095611  0.066263809
     7.538506746 -7.580117697  7.528135860     0.066383288  0.000095404  0.066456334
     7.578493281  7.567320257 -7.581026814     0.066207605  0.066112690  0.000270385

  length of vectors
    13.125904083 13.075171042 13.121351449     0.093592761  0.093931860  0.093564993

  position of ions in fractional coordinates (direct lattice)
     0.996753886  0.995611770  0.195672736
     0.393267142  0.195766610  0.193235492
     0.594806319  0.196824601  0.192501219
     0.800215029  0.402792140  0.801418855
     0.999623663  0.603759805  0.196206366
     0.987391719  0.596066842  0.597977085
     0.200120049  0.001676931  0.600249441
     0.194572509  0.591981917  0.592687075
     0.401691977  0.999813241  0.397992752
     0.412667455  0.605868749  0.607527143
     0.426315037  0.797749614  0.997576726
     0.589930666  0.192936114  0.396655346
     0.599128405  0.398477247  0.194596696
     0.588790130  0.398653411  0.397010375
     0.803570070  0.203960540  0.000510656
     0.799589937  0.195129404  0.608714542
     0.998636620  0.995901265  0.001826448
     0.997226530  0.997287121  0.394143369
     0.995019783  0.997688612  0.599994472
     0.998851107  0.998494361  0.802756077
     0.005219577  0.197081626  0.997871489
     0.998852578  0.191750510  0.196737923
     0.009606520  0.196476452  0.397036340
     0.008191838  0.196305013  0.603932752
     0.000040803  0.197799182  0.800779133
     0.001781156  0.399954709  0.000171549
     0.008770591  0.401856738  0.202615571
     0.996339967  0.394567932  0.387204322
     0.020717283  0.410506389  0.621664021
     0.004713644  0.404351457  0.808487442
     0.996531593  0.598214967  0.992455256
     0.999442116  0.599045674  0.397784223
     0.004366296  0.605347498  0.809350827
     0.000457080  0.800490963  0.999576439
     0.998525138  0.808179386  0.195368778
     0.998253042  0.795758593  0.394922780
     0.004041631  0.808576741  0.603555348
     0.003028490  0.803570337  0.804762853
     0.202178439  0.003859288  0.004734524
     0.195927209  0.997490533  0.196938824
     0.195248670  0.997721694  0.392655349
     0.200259035  0.000349679  0.805531749
     0.197052394  0.198746750  0.998691471
     0.199173467  0.197541971  0.196363650
     0.195398867  0.194178740  0.393686448
     0.200496438  0.202751253  0.599343873
     0.198832657  0.198215832  0.800013047
     0.199334005  0.396683722  0.000788795
     0.200098743  0.398164895  0.198776639
     0.197420930  0.394982558  0.393885593
     0.204844842  0.394997692  0.601257064
     0.201764209  0.397047100  0.801326439
     0.201330766  0.598997027  0.002328396
     0.203568092  0.599638824  0.198389282
     0.197934342  0.599828704  0.391442288
     0.201688354  0.597622974  0.803879926
     0.201682123  0.799753906  0.000506159
     0.196032916  0.796786706  0.195021505
     0.204606470  0.808101924  0.403273303
     0.199699112  0.801327896  0.601582204
     0.204348292  0.804836666  0.805274749
     0.406450281  0.004723418  0.002677560
     0.390556351  0.993358322  0.185879278
     0.404900627  0.003551560  0.604134862
     0.399969566  0.003547658  0.803838949
     0.390954946  0.198107216  0.998241507
     0.390875906  0.203194219  0.392592303
     0.397506487  0.198920592  0.599178449
     0.403824731  0.206594264  0.806428862
     0.399855189  0.398643702  0.999852954
     0.395231908  0.396760525  0.199449287
     0.392575208  0.401804433  0.399090367
     0.399376586  0.395327297  0.600640912
     0.401113307  0.402495773  0.802529912
     0.392417040  0.587379238  0.001345392
     0.401447142  0.598904661  0.201042873
     0.400508424  0.599763876  0.395838412
     0.406432043  0.601492786  0.808324728
     0.399731938  0.796439661  0.197963157
     0.399305607  0.796217636  0.400452921
     0.398673461  0.803392519  0.599205260
     0.392355122  0.803099767  0.792849596
     0.603878267  0.998768894  0.004521335
     0.597351600  0.009725086  0.204170166
     0.599569748  0.980260994  0.391672767
     0.601158934  0.998619392  0.600430507
     0.596744689  0.203151117  0.003876961
     0.604858231  0.210972935  0.616713523
     0.599270792  0.201716308  0.802642967
     0.598745348  0.404868173  0.994725934
     0.596198917  0.399096362  0.602828776
     0.599234799  0.402852516  0.801877656
     0.597760235  0.615653075  0.999951452
     0.598927218  0.604698406  0.196317767
     0.600084357  0.607072924  0.399109252
     0.607027983  0.602299506  0.603253501
     0.600257523  0.596165668  0.798136984
     0.603456705  0.804033186  0.827400765
     0.601913327  0.801183528  0.193846844
     0.599443066  0.796776582  0.398929723
     0.600059293  0.798725764  0.602514262
     0.806118172  0.999339070  0.001494205
     0.790847237  0.986820983  0.187191300
     0.801137498  0.989994153  0.396901300
     0.799715755  0.991775678  0.601722625
     0.799626398  0.996653696  0.801865138
     0.798332521  0.198420602  0.194853096
     0.802299034  0.203598085  0.803123165
     0.794785543  0.403665320  0.987011220
     0.804372171  0.401689057  0.193719410
     0.787387891  0.399575995  0.379060475
     0.799913898  0.408922198  0.614005946
     0.797575123  0.606412658  0.999490975
     0.792877045  0.599441152  0.194112783
     0.804482032  0.605952999  0.402791166
     0.795357448  0.607506519  0.608691067
     0.800199950  0.601767911  0.804230144
     0.797162713  0.801754214  0.003175826
     0.804362226  0.800141142  0.203724140
     0.799444717  0.797115847  0.398487889
     0.800894936  0.801119250  0.603726497
     0.799839086  0.800739602  0.805132846
     0.597764853  0.996574541  0.800220818
     0.815579819  0.214802521  0.411601296

  ion indices of the primitive-cell ions
   primitive index   ion index
                 1           1
                 2           2
                 3           3
                 4           4
                 5           5
                 6           6
                 7           7
                 8           8
                 9           9
                10          10
                11          11
                12          12
                13          13
                14          14
                15          15
                16          16
                17          17
                18          18
                19          19
                20          20
                21          21
                22          22
                23          23
                24          24
                25          25
                26          26
                27          27
                28          28
                29          29
                30          30
                31          31
                32          32
                33          33
                34          34
                35          35
                36          36
                37          37
                38          38
                39          39
                40          40
                41          41
                42          42
                43          43
                44          44
                45          45
                46          46
                47          47
                48          48
                49          49
                50          50
                51          51
                52          52
                53          53
                54          54
                55          55
                56          56
                57          57
                58          58
                59          59
                60          60
                61          61
                62          62
                63          63
                64          64
                65          65
                66          66
                67          67
                68          68
                69          69
                70          70
                71          71
                72          72
                73          73
                74          74
                75          75
                76          76
                77          77
                78          78
                79          79
                80          80
                81          81
                82          82
                83          83
                84          84
                85          85
                86          86
                87          87
                88          88
                89          89
                90          90
                91          91
                92          92
                93          93
                94          94
                95          95
                96          96
                97          97
                98          98
                99          99
               100         100
               101         101
               102         102
               103         103
               104         104
               105         105
               106         106
               107         107
               108         108
               109         109
               110         110
               111         111
               112         112
               113         113
               114         114
               115         115
               116         116
               117         117
               118         118
               119         119
               120         120
               121         121
               122         122
               123         123
               124         124

----------------------------------------------------------------------------------------

 
 
 KPOINTS: KPOINTS generated by db_to_vasp         

Automatic generation of k-mesh.
 Grid dimensions read from file:
 generate k-points for:    4    4    4

 Generating k-lattice:

  Cartesian coordinates                     Fractional coordinates (reciprocal lattice)
     0.000071949  0.016523903  0.016565952     0.250000000  0.000000000 -0.000000000
     0.016595822  0.000023851  0.016614084    -0.000000000  0.250000000 -0.000000000
     0.016551901  0.016528173  0.000067596     0.000000000 -0.000000000  0.250000000

  Length of vectors
     0.023398190  0.023482965  0.023391248

  Shift w.r.t. Gamma in fractional coordinates (k-lattice)
     0.000000000  0.000000000  0.000000000

 
 Subroutine IBZKPT returns following result:
 ===========================================
 
 Found     36 irreducible k-points:
 
 Following reciprocal coordinates:
            Coordinates               Weight
  0.000000  0.000000  0.000000      1.000000
  0.250000  0.000000  0.000000      2.000000
  0.500000  0.000000  0.000000      1.000000
  0.000000  0.250000  0.000000      2.000000
  0.250000  0.250000  0.000000      2.000000
  0.500000  0.250000  0.000000      2.000000
 -0.250000  0.250000  0.000000      2.000000
  0.000000  0.500000  0.000000      1.000000
  0.250000  0.500000  0.000000      2.000000
  0.500000  0.500000  0.000000      1.000000
  0.000000  0.000000  0.250000      2.000000
  0.250000  0.000000  0.250000      2.000000
  0.500000  0.000000  0.250000      2.000000
 -0.250000  0.000000  0.250000      2.000000
  0.000000  0.250000  0.250000      2.000000
  0.250000  0.250000  0.250000      2.000000
  0.500000  0.250000  0.250000      2.000000
 -0.250000  0.250000  0.250000      2.000000
  0.000000  0.500000  0.250000      2.000000
  0.250000  0.500000  0.250000      2.000000
  0.500000  0.500000  0.250000      2.000000
 -0.250000  0.500000  0.250000      2.000000
  0.000000 -0.250000  0.250000      2.000000
  0.250000 -0.250000  0.250000      2.000000
  0.500000 -0.250000  0.250000      2.000000
 -0.250000 -0.250000  0.250000      2.000000
  0.000000  0.000000  0.500000      1.000000
  0.250000  0.000000  0.500000      2.000000
  0.500000  0.000000  0.500000      1.000000
  0.000000  0.250000  0.500000      2.000000
  0.250000  0.250000  0.500000      2.000000
  0.500000  0.250000  0.500000      2.000000
 -0.250000  0.250000  0.500000      2.000000
  0.000000  0.500000  0.500000      1.000000
  0.250000  0.500000  0.500000      2.000000
  0.500000  0.500000  0.500000      1.000000
 
 Following cartesian coordinates:
            Coordinates               Weight
  0.000000  0.000000  0.000000      1.000000
  0.000072  0.016524  0.016566      2.000000
  0.000144  0.033048  0.033132      1.000000
  0.016596  0.000024  0.016614      2.000000
  0.016668  0.016548  0.033180      2.000000
  0.016740  0.033072  0.049746      2.000000
  0.016524 -0.016500  0.000048      2.000000
  0.033192  0.000048  0.033228      1.000000
  0.033264  0.016572  0.049794      2.000000
  0.033336  0.033096  0.066360      1.000000
  0.016552  0.016528  0.000068      2.000000
  0.016624  0.033052  0.016634      2.000000
  0.016696  0.049576  0.033200      2.000000
  0.016480  0.000004 -0.016498      2.000000
  0.033148  0.016552  0.016682      2.000000
  0.033220  0.033076  0.033248      2.000000
  0.033292  0.049600  0.049814      2.000000
  0.033076  0.000028  0.000116      2.000000
  0.049744  0.016576  0.033296      2.000000
  0.049815  0.033100  0.049862      2.000000
  0.049887  0.049624  0.066428      2.000000
  0.049672  0.000052  0.016730      2.000000
 -0.000044  0.016504 -0.016546      2.000000
  0.000028  0.033028  0.000019      2.000000
  0.000100  0.049552  0.016585      2.000000
 -0.000116 -0.000020 -0.033112      2.000000
  0.033104  0.033056  0.000135      1.000000
  0.033176  0.049580  0.016701      2.000000
  0.033248  0.066104  0.033267      1.000000
  0.049700  0.033080  0.016749      2.000000
  0.049772  0.049604  0.033315      2.000000
  0.049844  0.066128  0.049881      2.000000
  0.049628  0.016556  0.000183      2.000000
  0.066295  0.033104  0.033363      1.000000
  0.066367  0.049628  0.049929      2.000000
  0.066439  0.066152  0.066495      1.000000
 


--------------------------------------------------------------------------------------------------------




 Dimension of arrays:
   k-points           NKPTS =     36   k-points in BZ     NKDIM =     36   number of bands    NBANDS=    816
   number of dos      NEDOS =    301   number of ions     NIONS =    124
   non local maximal  LDIM  =      6   non local SUM 2l+1 LMDIM =     18
   total plane-waves  NPLWV = 941192
   max r-space proj   IRMAX =      1   max aug-charges    IRDMAX=  31289
   dimension x,y,z NGX =    98 NGY =   98 NGZ =   98
   dimension x,y,z NGXF=   196 NGYF=  196 NGZF=  196
   support grid    NGXF=   196 NGYF=  196 NGZF=  196
   ions per type =               4  12 106   1   1
   NGX,Y,Z   is equivalent  to a cutoff of  12.41, 12.46, 12.42 a.u.
   NGXF,Y,Z  is equivalent  to a cutoff of  24.82, 24.92, 24.83 a.u.

 SYSTEM =  unknown system                          
 POSCAR =  Cr Ti V  W  Zr                          

 Startparameter for this run:
   NWRITE =      2    write-flag & timer
   PREC   = accura    normal or accurate (medium, high low for compatibility)
   ISTART =      0    job   : 0-new  1-cont  2-samecut
   ICHARG =      2    charge: 1-file 2-atom 10-const
   ISPIN  =      1    spin polarized calculation?
   LNONCOLLINEAR =      F non collinear calculations
   LSORBIT =      F    spin-orbit coupling
   INIWAV =      1    electr: 0-lowe 1-rand  2-diag
   LASPH  =      F    aspherical Exc in radial PAW
 Electronic Relaxation 1
   ENCUT  =  520.0 eV  38.22 Ry    6.18 a.u.  24.41 24.31 24.40*2*pi/ulx,y,z
   ENINI  =  520.0     initial cutoff
   ENAUG  =  598.5 eV  augmentation charge cutoff
   NELM   =    100;   NELMIN=  2; NELMDL= -5     # of ELM steps 
   EDIFF  = 0.1E-05   stopping-criterion for ELM
   LREAL  =      F    real-space projection
   NLSPLINE    = F    spline interpolate recip. space projectors
   LCOMPAT=      F    compatible to vasp.4.4
   GGA_COMPAT  = T    GGA compatible to vasp.4.4-vasp.4.6
   LMAXPAW     = -100 max onsite density
   LMAXMIX     =    2 max onsite mixed and CHGCAR
   VOSKOWN=      0    Vosko Wilk Nusair interpolation
   ROPT   =    0.00000   0.00000   0.00000   0.00000
   ROPT   =    0.00000
 Ionic relaxation
   EDIFFG = -.1E-01   stopping-criterion for IOM
   NSW    =     -1    number of steps for IOM
   NBLOCK =      1;   KBLOCK =      1    inner block; outer block 
   IBRION =      2    ionic relax: 0-MD 1-quasi-New 2-CG
   NFREE  =      1    steps in history (QN), initial steepest desc. (CG)
   ISIF   =      2    stress and relaxation
   IWAVPR =     11    prediction:  0-non 1-charg 2-wave 3-comb
   ISYM   =      2    0-nonsym 1-usesym 2-fastsym
   LCORR  =      T    Harris-Foulkes like correction to forces

   POTIM  = 0.2000    time-step for ionic-motion
   TEIN   =    0.0    initial temperature
   TEBEG  =    0.0;   TEEND  =   0.0 temperature during run
   SMASS  =  -3.00    Nose mass-parameter (am)
   estimated Nose-frequenzy (Omega)   =  0.10E-29 period in steps = 0.31E+47 mass=  -0.394E-26a.u.
   SCALEE = 1.0000    scale energy and forces
   NPACO  =    256;   APACO  = 10.0  distance and # of slots for P.C.
   PSTRESS=    0.0 pullay stress

  Mass of Ions in am
   POMASS =  52.00 47.88 50.94183.85 91.22
  Ionic Valenz
   ZVAL   =  12.00 10.00 11.00 14.00 12.00
  Atomic Wigner-Seitz radii
   RWIGS  =  -1.00 -1.00 -1.00 -1.00 -1.00
  virtual crystal weights 
   VCA    =   1.00  1.00  1.00  1.00  1.00
   NELECT =    1360.0000    total number of electrons
   NUPDOWN=      -1.0000    fix difference up-down

 DOS related values:
   EMIN   =  10.00;   EMAX   =-10.00  energy-range for DOS
   EFERMI =   0.00;   METHOD = LEGACY      
   ISMEAR =     1;   SIGMA  =   0.20  broadening in eV -4-tet -1-fermi 0-gaus

 Electronic relaxation 2 (details)
   IALGO  =     38    algorithm
   LDIAG  =      T    sub-space diagonalisation (order eigenvalues)
   LSUBROT=      F    optimize rotation matrix (better conditioning)
   TURBO    =      0    0=normal 1=particle mesh
   IRESTART =      0    0=no restart 2=restart with 2 vectors
   NREBOOT  =      0    no. of reboots
   NMIN     =      0    reboot dimension
   EREF     =   0.00    reference energy to select bands
   IMIX   =      4    mixing-type and parameters
     AMIX     =   0.40;   BMIX     =  1.00
     AMIX_MAG =   1.60;   BMIX_MAG =  1.00
     AMIN     =   0.10
     WC   =   100.;   INIMIX=   1;  MIXPRE=   1;  MAXMIX= -45

 Intra band minimization:
   WEIMIN = 0.0010     energy-eigenvalue tresh-hold
   EBREAK =  0.31E-09  absolut break condition
   DEPER  =   0.30     relativ break condition  

   TIME   =   0.40     timestep for ELM

  volume/ion in A,a.u.               =      13.93        94.03
  Fermi-wavevector in a.u.,A,eV,Ry     =   1.511546  2.856408 31.086197  2.284771
  Thomas-Fermi vector in A             =   2.621589
 
 Write flags
   LWAVE        =      F    write WAVECAR
   LDOWNSAMPLE  =      F    k-point downsampling of WAVECAR
   LCHARG       =      T    write CHGCAR
   LVTOT        =      F    write LOCPOT, total local potential
   LVHAR        =      F    write LOCPOT, Hartree potential only
   LELF         =      F    write electronic localiz. function (ELF)
   LORBIT       =     11    0 simple, 1 ext, 2 COOP (PROOUT), +10 PAW based schemes


 Dipole corrections
   LMONO  =      F    monopole corrections only (constant potential shift)
   LDIPOL =      F    correct potential (dipole corrections)
   IDIPOL =      0    1-x, 2-y, 3-z, 4-all directions 
   EPSILON=  1.0000000 bulk dielectric constant

 Exchange correlation treatment:
   GGA     =    PE    GGA type
   LEXCH   =     8    internal setting for exchange type
   LIBXC   =     F    Libxc                    
   VOSKOWN =     0    Vosko Wilk Nusair interpolation
   LHFCALC =     F    Hartree Fock is set to
   LHFONE  =     F    Hartree Fock one center treatment
   AEXX    =    0.0000 exact exchange contribution

 Linear response parameters
   LEPSILON=     F    determine dielectric tensor
   LRPA    =     F    only Hartree local field effects (RPA)
   LNABLA  =     F    use nabla operator in PAW spheres
   LVEL    =     F    velocity operator in full k-point grid
   CSHIFT  =0.1000    complex shift for real part using Kramers Kronig
   OMEGAMAX=  -1.0    maximum frequency
   DEG_THRESHOLD= 0.2000000E-02 threshold for treating states as degnerate
   RTIME   =   -0.100 relaxation time in fs
  (WPLASMAI=    0.000 imaginary part of plasma frequency in eV, 0.658/RTIME)
   DFIELD  = 0.0000000 0.0000000 0.0000000 field for delta impulse in time
 
  Optional k-point grid parameters
   LKPOINTS_OPT  =     F    use optional k-point grid
   KPOINTS_OPT_MODE=     1    mode for optional k-point grid
 
 Orbital magnetization related:
   ORBITALMAG=     F  switch on orbital magnetization
   LCHIMAG   =     F  perturbation theory with respect to B field
   DQ        =  0.001000  dq finite difference perturbation B field
   LLRAUG    =     F  two centre corrections for induced B field
   LBONE     =     F  B-component reconstruction in AE one-centre
   LVGVCALC  =     T  calculate vGv susceptibility
   LVGVAPPL  =     F  apply vGv susceptibility instead of pGv for G=0

 Random number generation:
   RANDOM_GENERATOR = DEFAULT
   PCG_SEED         = not used


--------------------------------------------------------------------------------------------------------


 conjugate gradient relaxation of ions
 charge density and potential will be updated during run
 non-spin polarized calculation
 Variant of blocked Davidson
 Davidson routine will perform the subspace rotation
 perform sub-space diagonalisation
    after iterative eigenvector-optimisation
 modified Broyden-mixing scheme, WC =      100.0
 initial mixing is a Kerker type mixing with AMIX =  0.4000 and BMIX =      1.0000
 Hartree-type preconditioning will be used
 using additional bands           136
 reciprocal scheme for non local part
 use partial core corrections
 calculate Harris-corrections to forces 
   (improved forces if not selfconsistent)
 use gradient corrections 
 use of overlap-Matrix (Vanderbilt PP)
 Methfessel and Paxton  Order N= 1 SIGMA  =   0.20


--------------------------------------------------------------------------------------------------------


  energy-cutoff  :      520.00
  volume of cell :     1727.82
      direct lattice vectors                 reciprocal lattice vectors
    -7.591332893  7.571263322  7.572119558     0.000287796  0.066095611  0.066263809
     7.538506746 -7.580117697  7.528135860     0.066383288  0.000095404  0.066456334
     7.578493281  7.567320257 -7.581026814     0.066207605  0.066112690  0.000270385

  length of vectors
    13.125904083 13.075171042 13.121351449     0.093592761  0.093931860  0.093564993


 
 k-points in units of 2pi/SCALE and weight: KPOINTS generated by db_to_vasp         
   0.00000000  0.00000000  0.00000000       0.016
   0.00007195  0.01652390  0.01656595       0.031
   0.00014390  0.03304781  0.03313190       0.016
   0.01659582  0.00002385  0.01661408       0.031
   0.01666777  0.01654775  0.03318004       0.031
   0.01673972  0.03307166  0.04974599       0.031
   0.01652387 -0.01650005  0.00004813       0.031
   0.03319164  0.00004770  0.03322817       0.016
   0.03326359  0.01657160  0.04979412       0.031
   0.03333554  0.03309551  0.06636007       0.016
   0.01655190  0.01652817  0.00006760       0.031
   0.01662385  0.03305208  0.01663355       0.031
   0.01669580  0.04957598  0.03319950       0.031
   0.01647995  0.00000427 -0.01649836       0.031
   0.03314772  0.01655202  0.01668168       0.031
   0.03321967  0.03307593  0.03324763       0.031
   0.03329162  0.04959983  0.04981358       0.031
   0.03307577  0.00002812  0.00011573       0.031
   0.04974355  0.01657587  0.03329576       0.031
   0.04981549  0.03309978  0.04986172       0.031
   0.04988744  0.04962368  0.06642767       0.031
   0.04967160  0.00005197  0.01672981       0.031
  -0.00004392  0.01650432 -0.01654649       0.031
   0.00002803  0.03302822  0.00001946       0.031
   0.00009998  0.04955213  0.01658542       0.031
  -0.00011587 -0.00001958 -0.03311244       0.031
   0.03310380  0.03305635  0.00013519       0.016
   0.03317575  0.04958025  0.01670114       0.031
   0.03324770  0.06610415  0.03326710       0.016
   0.04969962  0.03308020  0.01674928       0.031
   0.04977157  0.04960410  0.03331523       0.031
   0.04984352  0.06612800  0.04988118       0.031
   0.04962768  0.01655629  0.00018332       0.031
   0.06629545  0.03310405  0.03336336       0.016
   0.06636740  0.04962795  0.04992931       0.031
   0.06643934  0.06615185  0.06649526       0.016
 
 k-points in reciprocal lattice and weights: KPOINTS generated by db_to_vasp         
   0.00000000  0.00000000  0.00000000       0.016
   0.25000000  0.00000000  0.00000000       0.031
   0.50000000  0.00000000  0.00000000       0.016
   0.00000000  0.25000000  0.00000000       0.031
   0.25000000  0.25000000  0.00000000       0.031
   0.50000000  0.25000000  0.00000000       0.031
  -0.25000000  0.25000000  0.00000000       0.031
   0.00000000  0.50000000  0.00000000       0.016
   0.25000000  0.50000000  0.00000000       0.031
   0.50000000  0.50000000  0.00000000       0.016
   0.00000000  0.00000000  0.25000000       0.031
   0.25000000  0.00000000  0.25000000       0.031
   0.50000000  0.00000000  0.25000000       0.031
  -0.25000000  0.00000000  0.25000000       0.031
   0.00000000  0.25000000  0.25000000       0.031
   0.25000000  0.25000000  0.25000000       0.031
   0.50000000  0.25000000  0.25000000       0.031
  -0.25000000  0.25000000  0.25000000       0.031
   0.00000000  0.50000000  0.25000000       0.031
   0.25000000  0.50000000  0.25000000       0.031
   0.50000000  0.50000000  0.25000000       0.031
  -0.25000000  0.50000000  0.25000000       0.031
   0.00000000 -0.25000000  0.25000000       0.031
   0.25000000 -0.25000000  0.25000000       0.031
   0.50000000 -0.25000000  0.25000000       0.031
  -0.25000000 -0.25000000  0.25000000       0.031
   0.00000000  0.00000000  0.50000000       0.016
   0.25000000  0.00000000  0.50000000       0.031
   0.50000000  0.00000000  0.50000000       0.016
   0.00000000  0.25000000  0.50000000       0.031
   0.25000000  0.25000000  0.50000000       0.031
   0.50000000  0.25000000  0.50000000       0.031
  -0.25000000  0.25000000  0.50000000       0.031
   0.00000000  0.50000000  0.50000000       0.016
   0.25000000  0.50000000  0.50000000       0.031
   0.50000000  0.50000000  0.50000000       0.016
 
 position of ions in fractional coordinates (direct lattice) 
   0.99675389  0.99561177  0.19567274
   0.39326714  0.19576661  0.19323549
   0.59480632  0.19682460  0.19250122
   0.80021503  0.40279214  0.80141885
   0.99962366  0.60375980  0.19620637
   0.98739172  0.59606684  0.59797709
   0.20012005  0.00167693  0.60024944
   0.19457251  0.59198192  0.59268707
   0.40169198  0.99981324  0.39799275
   0.41266746  0.60586875  0.60752714
   0.42631504  0.79774961  0.99757673
   0.58993067  0.19293611  0.39665535
   0.59912840  0.39847725  0.19459670
   0.58879013  0.39865341  0.39701038
   0.80357007  0.20396054  0.00051066
   0.79958994  0.19512940  0.60871454
   0.99863662  0.99590127  0.00182645
   0.99722653  0.99728712  0.39414337
   0.99501978  0.99768861  0.59999447
   0.99885111  0.99849436  0.80275608
   0.00521958  0.19708163  0.99787149
   0.99885258  0.19175051  0.19673792
   0.00960652  0.19647645  0.39703634
   0.00819184  0.19630501  0.60393275
   0.00004080  0.19779918  0.80077913
   0.00178116  0.39995471  0.00017155
   0.00877059  0.40185674  0.20261557
   0.99633997  0.39456793  0.38720432
   0.02071728  0.41050639  0.62166402
   0.00471364  0.40435146  0.80848744
   0.99653159  0.59821497  0.99245526
   0.99944212  0.59904567  0.39778422
   0.00436630  0.60534750  0.80935083
   0.00045708  0.80049096  0.99957644
   0.99852514  0.80817939  0.19536878
   0.99825304  0.79575859  0.39492278
   0.00404163  0.80857674  0.60355535
   0.00302849  0.80357034  0.80476285
   0.20217844  0.00385929  0.00473452
   0.19592721  0.99749053  0.19693882
   0.19524867  0.99772169  0.39265535
   0.20025904  0.00034968  0.80553175
   0.19705239  0.19874675  0.99869147
   0.19917347  0.19754197  0.19636365
   0.19539887  0.19417874  0.39368645
   0.20049644  0.20275125  0.59934387
   0.19883266  0.19821583  0.80001305
   0.19933401  0.39668372  0.00078879
   0.20009874  0.39816490  0.19877664
   0.19742093  0.39498256  0.39388559
   0.20484484  0.39499769  0.60125706
   0.20176421  0.39704710  0.80132644
   0.20133077  0.59899703  0.00232840
   0.20356809  0.59963882  0.19838928
   0.19793434  0.59982870  0.39144229
   0.20168835  0.59762297  0.80387993
   0.20168212  0.79975391  0.00050616
   0.19603292  0.79678671  0.19502150
   0.20460647  0.80810192  0.40327330
   0.19969911  0.80132790  0.60158220
   0.20434829  0.80483667  0.80527475
   0.40645028  0.00472342  0.00267756
   0.39055635  0.99335832  0.18587928
   0.40490063  0.00355156  0.60413486
   0.39996957  0.00354766  0.80383895
   0.39095495  0.19810722  0.99824151
   0.39087591  0.20319422  0.39259230
   0.39750649  0.19892059  0.59917845
   0.40382473  0.20659426  0.80642886
   0.39985519  0.39864370  0.99985295
   0.39523191  0.39676053  0.19944929
   0.39257521  0.40180443  0.39909037
   0.39937659  0.39532730  0.60064091
   0.40111331  0.40249577  0.80252991
   0.39241704  0.58737924  0.00134539
   0.40144714  0.59890466  0.20104287
   0.40050842  0.59976388  0.39583841
   0.40643204  0.60149279  0.80832473
   0.39973194  0.79643966  0.19796316
   0.39930561  0.79621764  0.40045292
   0.39867346  0.80339252  0.59920526
   0.39235512  0.80309977  0.79284960
   0.60387827  0.99876889  0.00452134
   0.59735160  0.00972509  0.20417017
   0.59956975  0.98026099  0.39167277
   0.60115893  0.99861939  0.60043051
   0.59674469  0.20315112  0.00387696
[...]
   0.180E+02 -.685E+02 0.296E+02   -.178E+02 0.690E+02 -.300E+02   -.188E+00 -.477E+00 0.400E+00   -.345E-02 -.316E-02 0.223E-02
   0.358E+02 -.564E+02 0.667E+02   -.354E+02 0.569E+02 -.666E+02   -.457E+00 -.429E+00 -.479E-01   -.735E-03 -.561E-03 0.636E-03
   0.183E+03 -.780E+01 -.190E+02   -.183E+03 0.815E+01 0.192E+02   0.153E+00 -.346E+00 -.236E+00   0.397E-02 0.137E-02 -.170E-02
   0.338E+02 0.464E+02 -.200E+02   -.344E+02 -.464E+02 0.200E+02   0.667E+00 -.394E-01 0.356E-02   0.413E-02 -.559E-03 -.143E-02
   -.834E+02 0.146E+03 0.153E+03   0.830E+02 -.145E+03 -.153E+03   0.445E+00 -.531E+00 -.682E+00   -.257E-04 -.504E-02 -.194E-02
   -.294E+02 0.107E+03 0.522E+02   0.294E+02 -.107E+03 -.526E+02   -.306E-02 0.474E-01 0.418E+00   -.198E-02 -.629E-02 0.175E-02
   0.131E+02 -.847E+01 0.861E+01   -.129E+02 0.896E+01 -.878E+01   -.196E+00 -.484E+00 0.174E+00   0.193E-02 -.115E-02 0.144E-02
   0.585E+02 0.190E+01 0.172E+02   -.586E+02 -.187E+01 -.173E+02   0.105E+00 -.378E-01 0.679E-01   0.633E-02 -.141E-03 -.148E-02
   0.283E+01 0.616E+02 0.541E+02   -.305E+01 -.615E+02 -.540E+02   0.220E+00 -.444E-01 -.108E+00   0.510E-02 -.287E-02 -.351E-02
   -.668E+00 -.478E+02 0.426E+02   0.476E+00 0.475E+02 -.425E+02   0.198E+00 0.337E+00 -.266E-01   -.461E-02 0.320E-02 0.542E-03
   -.848E+02 0.418E+01 0.563E+02   0.842E+02 -.433E+01 -.562E+02   0.600E+00 0.148E+00 -.803E-01   -.150E-02 0.133E-02 -.898E-03
 -----------------------------------------------------------------------------------------------
   -.349E+00 -.108E+00 0.243E+00   -.296E-11 0.368E-11 0.193E-11   0.347E+00 0.115E+00 -.236E+00   0.538E-02 -.542E-02 -.251E-02
 
 
 POSITION                                       TOTAL-FORCE (eV/Angst)
 -----------------------------------------------------------------------------------
      1.42164      1.48055     13.55924        -0.000522      0.000208      0.000098
     -0.04520      2.95587      2.98670        -0.000851     -0.000590      0.000221
     -1.57274      4.46820      4.52631        -0.000234      0.000214      0.000501
      3.03530      9.07002      3.01602         0.000298     -0.000276     -0.000094
     -1.55008      4.47660     10.62701         0.000077     -0.000019     -0.000644
      1.52960      7.48263      7.43064        -0.000627      0.000072     -0.000089
      3.04245      6.04473     -3.02255         0.000547     -0.000135      0.000469
      7.47727      1.47092      1.43667        -0.000455     -0.000352     -0.000610
      7.50391     -1.52565      7.55120         0.000275     -0.000134     -0.000084
      6.03879      3.12921      3.08015         0.000248      0.000229     -0.000343
     10.33767      4.72969      1.67102        -0.000330      0.001093      0.001271
     -0.01786      6.00566      2.91242        -0.000084     -0.000147     -0.000360
     -0.06951      2.98823      6.06122        -0.000184     -0.000448      0.000374
      1.54429      4.44035      4.44976        -0.000621      0.000172     -0.000248
     -4.55874      4.54186      7.61630        -0.000752     -0.000810     -0.000058
      0.01417      9.18114      2.90887         0.000109     -0.000151     -0.000250
     -0.05953      0.02571     15.04523         0.000046      0.000201      0.000049
      2.93479      2.97332     12.07082        -0.000120     -0.000350      0.000061
      4.51461      4.51131     10.49657         0.000057     -0.000751     -0.000436
      6.02823      6.06857      8.99451         0.000169     -0.000510      0.000206
      9.00844      6.09683     -6.04171        -0.000057     -0.000467      0.000118
     -4.64613      7.59786      7.51548         0.000087      0.000407     -0.000424
      4.41715      1.58792     -1.45810        -0.000543     -0.000007     -0.000380
      5.99456      3.14416     -3.03859        -0.000614     -0.000236      0.000156
      7.55950      4.56072     -4.58136         0.000343     -0.000705     -0.000210
      3.00284     -3.01692      3.02310         0.000153     -0.000136     -0.000457
      4.49834     -1.44646      1.55561         0.000030      0.000197      0.000175
     -1.65467      7.48278      7.57936        -0.000123      0.000115     -0.000018
      7.64861      1.74950     -1.46563         0.000133     -0.000074     -0.000500
      9.13954      3.08874     -3.04946         0.000144     -0.000091     -0.000242
      4.46596     10.52069      4.52547         0.000291      0.000030     -0.000021
     -0.05658      6.03636      9.06198         0.000360      0.000336      0.000019
     10.66393      1.56907     -1.54551         0.000212      0.000143      0.000427
     13.60632      1.49976     -1.54815         0.000104     -0.000025      0.000717
     -0.00707      2.91242     12.16394         0.000496     -0.000123      0.000357
      1.41368      4.51460     10.55555        -0.000141     -0.000336     -0.000604
     10.63882     -1.53121      1.54211         0.000287     -0.000245      0.000015
     12.13362      0.02167     -0.02861         0.000066      0.000486      0.000387
     -1.46983      1.53732      1.52408        -0.000520     -0.000252      0.000170
      7.52474     -4.58738      7.49983        -0.000097     -0.000258     -0.000214
      9.01487     -3.11322      6.01270        -0.000228     -0.000510      0.000522
      4.58712      7.60928     -4.58774         0.000738      0.000587     -0.000222
      7.57094      7.54283     -4.58281        -0.000090      0.000111      0.000014
      1.46532      1.49655      1.50665        -0.000027      0.000297     -0.000229
      2.96403      2.98667     -0.04316         0.000126     -0.000067     -0.001019
      4.54853      4.51656     -1.49912         0.000314     -0.000645      0.000415
      6.04774      6.05687     -3.06714        -0.000158     -0.000636      0.000055
      1.48317     -1.49173      4.48969         0.000298     -0.000328      0.000417
      2.98898      0.00107      3.00568        -0.000016     -0.000069     -0.000245
      4.46395      1.48137      1.48232        -0.000032      0.000592     -0.000140
      5.97927      3.10671     -0.03344        -0.000192     -0.000373     -0.000402
      7.53433      4.58184     -1.55807         0.000140     -0.000497     -0.000161
      3.00482     -2.99852      6.01618         0.000360      0.000145     -0.000297
      4.47852     -1.50279      4.55161        -0.000042      0.000301     -0.000169
      5.98577     -0.08599      3.04684         0.000250      0.000345     -0.000801
      9.06630      3.08020     -0.06804        -0.000154     -0.000495     -0.000198
      4.50175     -4.53141      7.54398        -0.000227     -0.000112      0.000396
      5.99640     -3.07973      6.00424         0.000279      0.000018      0.000014
      7.59485     -1.52468      4.57558         0.000499     -0.000046      0.000167
      9.08392     -0.00982      2.98404        -0.000541      0.000559     -0.000937
     10.61876      1.54019      1.50146        -0.000066     -0.000318     -0.000280
     -3.02960      3.06180      3.09295        -0.000031     -0.000077      0.000196
      5.93228     -3.16616      9.02632        -0.000235      0.000626      0.000039
      1.53147      7.61037     -1.48727        -0.000403      0.000304      0.000544
      3.08233      9.08429     -3.03860         0.000437      0.000141      0.000187
      6.09073      9.01236     -3.11596        -0.000505     -0.000271      0.000605
      1.53977      4.39006      1.51318        -0.000165      0.000316     -0.000134
      3.02283      6.03596     -0.03492         0.000205     -0.000030     -0.000161
      4.60336      7.59396     -1.50048         0.000827      0.000552      0.000350
      7.54712      7.57185     -1.55112        -0.000004      0.000162     -0.000161
      1.50217      1.49421      4.46758         0.000341     -0.000264      0.000561
      3.07334      2.94661      2.97195         0.000155     -0.000008     -0.000230
      4.50033      4.57240      1.44673        -0.000328     -0.000167      0.000555
      6.07120      6.05897     -0.01668        -0.000025      0.000053     -0.000275
      1.45919     -1.47113      7.38310         0.000516      0.000045     -0.000072
      2.99093      0.02105      6.02433         0.000094      0.000372      0.000067
      4.48079      1.48151      4.54694         0.000005      0.000768     -0.000200
      7.57488      4.63467      1.47774        -0.000326     -0.000332      0.000189
      4.46973     -1.51258      7.52176        -0.000185     -0.000049     -0.000258
      6.00586      0.01818      5.98178         0.000491     -0.000038     -0.000005
      7.57099      1.46303      4.52426        -0.000623     -0.000279     -0.001169
      9.08428      2.88278      3.00619        -0.000039     -0.000331     -0.000954
      2.97925     -2.96445     12.05723         0.000684      0.000302      0.000360
     -2.91408      5.99401      3.04861        -0.000110      0.000214      0.000021
      5.80646      0.07292      8.95027         0.000414     -0.000356      0.000406
      7.51486      1.52553      7.51791         0.000246     -0.000027     -0.000474
     -2.96925      3.00754      6.01858         0.000066     -0.000045      0.000545
      1.67250      7.64721      1.49297        -0.000577     -0.000361     -0.000050
      3.05420      9.08206     -0.02856         0.000265      0.000188     -0.000543
      6.04535      8.99172      0.04063        -0.000274     -0.000262      0.000168
      3.05118      6.05058      2.94888        -0.000031      0.000081      0.000038
      4.56494      7.55136      1.49115         0.000366     -0.000131      0.000700
      7.68143      7.42603      1.58037         0.000264      0.000061      0.000638
      1.49966      1.43655      7.59911         0.000117      0.000118      0.000179
      3.04563      2.96190      6.08838        -0.000138      0.000126      0.000228
      4.50404      4.59548      4.55740        -0.000225     -0.000152     -0.000647
      5.98612      6.06546      2.98254         0.000114      0.000577      0.000459
      7.75062      4.73547      4.34977         0.000686      0.000988     -0.000873
      2.93947     -0.04892      9.11962        -0.000118      0.000445     -0.000110
      4.47922      1.51771      7.51300        -0.000563      0.000080     -0.000419
      6.03210      3.04819      5.98896         0.000535      0.000697     -0.000119
      1.42534     -1.46047     13.61586        -0.000288      0.000226     -0.000334
      2.85420     -0.07597     11.99821        -0.000727     -0.000025     -0.000186
      4.38929      1.56483     10.51020        -0.000651     -0.000406      0.000009
      5.96575      3.09051      8.96009         0.000345     -0.000252      0.000102
      7.51998      4.56740      7.47885         0.000310     -0.000100     -0.000566
     -3.08792      6.01485      6.06162         0.000363      0.000194      0.000333
      1.53077     10.60861      1.51932        -0.000194      0.000044      0.000088
      4.48961     10.42673      1.57450         0.000049     -0.000106      0.000388
     -1.61002      4.51120      7.64618        -0.000124     -0.000168      0.000221
     -0.09241      5.80116      6.09659        -0.000306     -0.000187     -0.000398
      1.66349      7.60306      4.48067        -0.000181     -0.000175     -0.000510
      6.09142      9.00544      3.02732        -0.000038     -0.000115      0.000157
     -0.02902      2.92816      9.04486         0.000184     -0.000304      0.000292
      1.51344      4.54580      7.59976        -0.000346     -0.000195      0.000199
      3.15483      6.02305      5.98143        -0.000006     -0.000171     -0.000163
      4.55670      7.58292      4.49251        -0.000078      0.000062      0.000092
      0.01657     -0.01783     12.04785         0.000109      0.000978      0.000737
      1.46961      1.56652     10.56986        -0.000548     -0.000159     -0.000056
      2.96015      3.02606      9.03334         0.000048      0.000016      0.000489
      4.53472      4.55980      7.51854         0.000069     -0.000140     -0.000235
      6.06623      6.07879      5.98082         0.000368      0.000209      0.000121
      9.03932      3.02721      5.96220         0.001264      0.001620      0.002691
     -1.45273      7.66146      4.67237        -0.000434     -0.000016     -0.000060
 -----------------------------------------------------------------------------------
    total drift:                                0.003527      0.001004      0.004609


--------------------------------------------------------------------------------------------------------



  FREE ENERGIE OF THE ION-ELECTRON SYSTEM (eV)
  ---------------------------------------------------
  free  energy   TOTEN  =     -1096.78823873 eV

  energy  without entropy=    -1096.73435683  energy(sigma->0) =    -1096.77027810
 


--------------------------------------------------------------------------------------------------------


    POTLOK:  cpu time      0.4859: real time      0.1747


--------------------------------------------------------------------------------------------------------




--------------------------------------------------------------------------------------------------------


  
 reached required accuracy - stopping structural energy minimisation
     LOOP+:  cpu time   5071.9940: real time   5064.3992
    4ORBIT:  cpu time      0.0000: real time      0.0000



 total charge

# of ion       s       p       d       tot
------------------------------------------
    1        0.422   6.330   4.196  10.948
    2        0.414   6.311   4.191  10.916
    3        0.416   6.304   4.217  10.937
    4        0.423   6.314   4.229  10.966
    5        0.360   6.291   2.111   8.763
    6        0.352   6.270   2.102   8.725
    7        0.363   6.292   2.128   8.783
    8        0.358   6.275   2.122   8.754
    9        0.356   6.282   2.098   8.736
   10        0.359   6.285   2.108   8.752
   11        0.346   6.250   2.093   8.689
   12        0.353   6.268   2.101   8.722
   13        0.365   6.299   2.122   8.786
   14        0.361   6.279   2.130   8.771
   15        0.361   6.298   2.158   8.818
   16        0.359   6.273   2.154   8.786
   17        0.359   6.240   3.073   9.672
   18        0.353   6.232   3.060   9.645
   19        0.356   6.228   3.076   9.660
   20        0.356   6.237   3.051   9.644
   21        0.355   6.237   3.052   9.644
   22        0.353   6.233   3.054   9.641
   23        0.353   6.219   3.082   9.654
   24        0.352   6.225   3.056   9.633
   25        0.355   6.235   3.046   9.636
   26        0.352   6.232   3.048   9.632
   27        0.358   6.223   3.093   9.674
   28        0.351   6.218   3.059   9.628
   29        0.357   6.208   3.108   9.673
   30        0.353   6.227   3.060   9.641
   31        0.357   6.236   3.067   9.660
   32        0.352   6.221   3.054   9.627
   33        0.357   6.230   3.082   9.669
   34        0.358   6.238   3.069   9.665
   35        0.361   6.235   3.088   9.684
   36        0.350   6.228   3.031   9.609
   37        0.352   6.226   3.056   9.634
   38        0.353   6.233   3.042   9.627
   39        0.357   6.245   3.046   9.648
   40        0.357   6.239   3.063   9.659
   41        0.355   6.224   3.079   9.657
   42        0.357   6.230   3.074   9.661
   43        0.362   6.238   3.098   9.697
   44        0.356   6.241   3.046   9.644
   45        0.359   6.238   3.079   9.676
   46        0.358   6.232   3.077   9.667
   47        0.353   6.236   3.040   9.629
   48        0.355   6.240   3.048   9.644
   49        0.360   6.236   3.077   9.673
   50        0.352   6.232   3.039   9.623
   51        0.354   6.221   3.081   9.655
   52        0.359   6.237   3.067   9.663
   53        0.356   6.230   3.080   9.666
   54        0.356   6.229   3.072   9.657
   55        0.351   6.225   3.054   9.630
   56        0.352   6.224   3.070   9.646
   57        0.351   6.223   3.062   9.637
   58        0.352   6.230   3.035   9.617
   59        0.351   6.225   3.050   9.626
   60        0.350   6.222   3.045   9.618
   61        0.349   6.219   3.057   9.624
   62        0.355   6.236   3.049   9.640
   63        0.355   6.220   3.093   9.668
   64        0.352   6.227   3.065   9.644
   65        0.355   6.233   3.078   9.666
   66        0.357   6.235   3.074   9.666
   67        0.355   6.230   3.047   9.631
   68        0.349   6.229   3.039   9.617
   69        0.353   6.229   3.056   9.638
   70        0.357   6.234   3.075   9.665
   71        0.354   6.234   3.038   9.625
   72        0.357   6.226   3.089   9.672
   73        0.355   6.227   3.072   9.654
   74        0.357   6.237   3.054   9.649
   75        0.371   6.240   3.089   9.700
   76        0.358   6.231   3.088   9.678
   77        0.355   6.229   3.073   9.657
   78        0.353   6.212   3.022   9.587
   79        0.350   6.227   3.034   9.610
   80        0.354   6.230   3.053   9.637
   81        0.353   6.228   3.091   9.672
   82        0.363   6.229   3.066   9.658
   83        0.353   6.223   3.036   9.611
   84        0.364   6.222   3.067   9.653
   85        0.354   6.216   3.090   9.661
   86        0.349   6.233   3.036   9.618
   87        0.348   6.233   3.024   9.605
   88        0.356   6.222   3.065   9.643
   89        0.355   6.234   3.089   9.678
   90        0.355   6.229   3.068   9.653
   91        0.354   6.229   3.069   9.651
   92        0.358   6.241   3.062   9.662
   93        0.342   6.211   3.011   9.565
   94        0.355   6.231   3.057   9.643
   95        0.352   6.230   3.051   9.632
   96        0.358   6.224   3.105   9.687
   97        0.369   6.238   3.072   9.680
   98        0.339   6.203   3.025   9.567
   99        0.353   6.216   3.015   9.584
  100        0.359   6.231   3.095   9.686
  101        0.345   6.231   3.012   9.589
  102        0.369   6.233   3.114   9.716
  103        0.334   6.205   2.987   9.526
  104        0.352   6.224   3.057   9.632
  105        0.355   6.229   3.074   9.657
  106        0.352   6.233   3.072   9.657
  107        0.352   6.222   3.069   9.643
  108        0.352   6.227   3.073   9.652
  109        0.355   6.231   3.057   9.643
  110        0.353   6.223   3.060   9.635
  111        0.355   6.208   3.075   9.637
  112        0.342   6.216   3.000   9.558
  113        0.355   6.238   3.058   9.652
  114        0.353   6.223   3.076   9.652
  115        0.351   6.224   3.047   9.622
  116        0.356   6.220   3.100   9.675
  117        0.356   6.238   3.062   9.657
  118        0.359   6.227   3.040   9.625
  119        0.372   6.237   3.098   9.707
  120        0.357   6.232   3.075   9.664
  121        0.356   6.235   3.067   9.658
  122        0.355   6.239   3.035   9.629
  123        2.442   6.261   3.435  12.138
  124        2.260   5.963   1.921  10.144
--------------------------------------------------
tot         48.257 773.085 372.1541193.496
 

 total amount of memory used by VASP MPI-rank0  7324551. kBytes
=======================================================================

   base      :      30000. kBytes
   nonl-proj :    1299768. kBytes
   fftplans  :      67629. kBytes
   grid      :     189621. kBytes
   one-center:       1928. kBytes
   wavefun   :    5735605. kBytes
 
  
  
 General timing and accounting informations for this job:
 ========================================================
  
                  Total CPU time used (sec):     5391.092
                            User time (sec):     4697.699
                          System time (sec):      693.394
                         Elapsed time (sec):     5377.174
  
                   Maximum memory used (kb):     9659908.
                   Average memory used (kb):          N/A
  
                          Minor page faults:       978134
                          Major page faults:           11
                 Voluntary context switches:       745063
