127
Lattice="12.091614014443511 -0.00041071459908877085 0.0006695360618873701 -0.0004106839850753486 12.089532370641614 0.00038327849287979614 0.0006695322856332959 0.0003832328764644084 12.094344108101494" Properties=species:S:1:pos:R:3:forces:R:3 energy=-1146.659332320013 free_energy=-1146.659332320013 stress="0.005949929671052369 -0.0006891906516386734 0.0012524695361873755 -0.0006891906516386734 0.005761335221841508 -0.0006141726101575467 0.0012524695361873755 -0.0006141726101575467 0.005451676076321401" pbc="T T T"
Cr       0.00506219       9.07347904      -0.02366003      -0.00023542      -0.00176757       0.00018573
Cr       4.59659404       4.53503262       1.49324932       0.00134078      -0.00042333      -0.00001360
Cr       4.54706882       7.56124144       1.45320446       0.00034533       0.00002192      -0.00063212
Cr       9.10160308       3.15038681       5.97484604      -0.00078484       0.00001686       0.00159814
Ti       0.28613181       2.74637354       3.32561896       0.00146841      -0.00270574       0.00299019
Ti       1.47296631       7.51851613       4.50227424       0.00080716      -0.00005200       0.00016769
Ti       2.86183350       0.15098001       5.87907788      -0.00420409       0.00242504      -0.00149266
Ti       2.86031935       2.94583320       5.87514629      -0.00019901       0.00311719       0.00076503
Ti       3.02475332       9.15617926       6.10443931      -0.00303417       0.00205464      -0.00212084
Ti      10.57626992       1.55913254       7.54126788      -0.00034330       0.00084714      -0.00006491
Ti       9.03477626       9.06099290       3.02825713      -0.00117455      -0.00154849      -0.00170348
V        0.01034426      -0.01321675       0.02861425      -0.00018040      -0.00112267      -0.00021492
V        1.57930074       1.48729599       1.40883361       0.00120326      -0.00112250       0.00005399
V        0.03653133       0.00147167       3.10454555       0.00093701      -0.00045006       0.00202390
V        0.06360500       0.10408773       5.94828112      -0.00155858      -0.00102222      -0.00070830
V        1.43895067       1.53227942       7.73495157      -0.00305481       0.00060006       0.00267571
V        0.02424432      -0.02390442       9.10548559      -0.00228794       0.00065346      -0.00063909
V        1.55596832       1.49394289      10.62129397      -0.00049009      -0.00050482       0.00081665
V        0.04215097       2.94305674       0.08267256       0.00133389      -0.00151490       0.00287554
V        1.65447957       4.41871853       1.61533419       0.00336737      -0.00174546       0.00205571
V        1.50857898       4.73686259       4.54713791       0.00129117       0.00042173       0.00275447
V        0.07915290       2.99636868       6.04958597       0.00156966      -0.00228227      -0.00099400
V        1.47508770       4.57075354       7.56923238      -0.00089559       0.00148031       0.00168776
V        0.02650381       3.07913981       9.10720425      -0.00162171       0.00150093       0.00087945
V        1.65721398       4.45164367      10.50604567       0.00185935       0.00095384       0.00153424
V        1.55156365       7.58915369       1.50637408       0.00079821      -0.00068132       0.00028949
V       -0.04151804       5.94078417       3.00071294       0.00105418      -0.00396813       0.00210296
V       -0.05739481       6.01823192       6.12577647       0.00025798      -0.00025194       0.00300068
V        1.47407482       7.54056437       7.59995050       0.00020667       0.00233190      -0.00079836
V        0.00618488       6.07426745       9.04857145      -0.00006568       0.00024016       0.00102558
V        1.56628142       7.64853785      10.55817097      -0.00081199      -0.00022261       0.00012247
V       -0.08365009       9.08799927       2.99157452      -0.00027430      -0.00239430      -0.00031185
V        1.40831320      10.45324715       4.47713949      -0.00280159      -0.00184916      -0.00138911
V       -0.05020538       9.10020503       6.07795865      -0.00117618       0.00118445      -0.00122075
V        1.45088872      10.64771435       7.59953006      -0.00233464       0.00099562      -0.00179500
V       -0.00155362       9.05814926       9.06724492      -0.00160090       0.00026580       0.00027750
V        1.50368172      10.56461118      10.58220457       0.00018116       0.00072940      -0.00088470
V        3.06325306      -0.00313967      -0.00600148       0.00117409      -0.00072427      -0.00153825
V        4.55121340       1.51029819       1.48335422       0.00068914      -0.00043272      -0.00053421
V        2.96362959       0.11514867       3.03696896       0.00021565      -0.00166555      -0.00129130
V        4.70798168       1.54458201       4.43414462       0.00019278       0.00083616      -0.00070931
V        4.46637440       1.55535007       7.58035371      -0.00021760       0.00035453      -0.00018046
V        3.00348839       0.01554940       9.07458488      -0.00107803       0.00188851      -0.00134610
V        4.53266244       1.52007312      10.59498530      -0.00087327       0.00089904      -0.00024678
V        3.10422508       3.05273633       0.03502143       0.00169650      -0.00092650      -0.00091196
V        3.09764803       3.01461586       3.01947290       0.00025756      -0.00034200       0.00078799
V        4.57496191       4.54417545       4.50315045       0.00010461       0.00074382      -0.00001658
V        4.53382357       4.55428520       7.53874653      -0.00018070       0.00180263       0.00045054
V        3.01896417       3.03913874       9.06849954       0.00082734       0.00307018       0.00015157
V        4.55931314       4.56216143      10.57320992       0.00085639       0.00053342      -0.00048713
V        3.14559583       6.05598601       0.01696674       0.00222817      -0.00006155       0.00164335
V        3.13054570       6.02069632       2.91695667       0.00156607      -0.00085547       0.00078628
V        3.06685667       6.03164858       6.09422023       0.00027930       0.00135689       0.00103095
V        4.54843445       7.52965389       7.61091125      -0.00052601       0.00280688      -0.00220758
V        3.02452261       6.06780077       9.05588219       0.00071203       0.00208358       0.00187963
V        4.55700072       7.57601373      10.54067802       0.00059821       0.00160799      -0.00133369
V        3.06868933       9.03029279      -0.02234473       0.00225333      -0.00017954      -0.00200264
V        4.55445432      10.61122323       1.47266442       0.00105298       0.00125257      -0.00284583
V        3.08023196       9.06991082       2.94300986      -0.00185945      -0.00053333      -0.00121490
V        4.54390611      10.65203264       4.39896904      -0.00273330       0.00101667      -0.00171238
V        4.55770720      10.66142756       7.62858740      -0.00312371       0.00189256      -0.00271399
V        3.01009075       9.09569516       9.04709361       0.00037069       0.00077777      -0.00127921
V        4.50284877      10.57761609      10.59121314      -0.00150610       0.00105015      -0.00220819
V        6.04632313       0.00634994      -0.00537628       0.00154523       0.00084762      -0.00199353
V        7.56689991       1.50438226       1.50947033       0.00018532      -0.00038724       0.00119176
V        6.04920605       0.01121892       2.96495863      -0.00156825       0.00097781      -0.00185726
V        7.56302676       1.55090207       4.46711676      -0.00050783      -0.00126249      -0.00019285
V        5.92816931      -0.05596107       5.96941806      -0.00282103       0.00277965      -0.00237392
V        5.96459339      -0.06025937       9.13645873      -0.00047921       0.00125693      -0.00085974
V        7.52064832       1.50428010      10.66329377       0.00027642       0.00149663      -0.00014402
V        6.04919086       3.05264964       0.02909660       0.00319377      -0.00013381      -0.00078658
V        7.59683140       4.52769808       1.53010036       0.00132772      -0.00171498       0.00261074
V        6.04583054       3.08502129       2.94291225       0.00197179      -0.00056387      -0.00160651
V        7.59576972       4.51769071       4.54962783       0.00101343      -0.00236642       0.00062515
V        5.94994778       3.12129545       5.96009307      -0.00162600       0.00081401      -0.00117979
V        7.56027944       4.59991769       7.53535247       0.00042068       0.00038903       0.00069933
V        5.96021896       3.14219117       9.16233151      -0.00049971       0.00091280      -0.00007463
V        7.52668073       4.57638538      10.59997540       0.00162609      -0.00103380       0.00046820
V        6.03319484       6.05803168       0.03230697       0.00135601       0.00029078       0.00013607
V        7.55304479       7.50280282       1.46134113       0.00122139      -0.00118754      -0.00009972
V        6.07087958       6.03500636       2.96661195       0.00152222       0.00057849      -0.00027538
V        7.56089579       7.50436015       4.55938691      -0.00049855      -0.00015316      -0.00074445
V        6.07277404       6.05620411       6.04309996       0.00012549       0.00187991       0.00096920
V        7.54589995       7.55398493       7.56529043      -0.00013552       0.00106495       0.00000389
V        6.05084456       6.07814301       9.06802292       0.00145662       0.00068139       0.00012132
V        7.54163366       7.56105556      10.60030492       0.00188367       0.00025967       0.00035595
V        6.03624916       9.03247695       0.00199224       0.00118079      -0.00059399      -0.00150972
V        7.51010904      10.59513081       1.46714806       0.00068413      -0.00083933      -0.00098180
V        6.06244081       9.04295052       2.96192172       0.00047494      -0.00139755      -0.00152308
V        7.49783302      10.61411460       4.53544558      -0.00082571       0.00058368      -0.00019400
V        6.05141915       9.08216774       6.03605478      -0.00174937       0.00024749      -0.00114407
V        7.50738307      10.52317718       7.56122310      -0.00165310       0.00032231      -0.00135337
V        6.03580556       9.05547823       9.08821139       0.00010069       0.00078344      -0.00130764
V        7.54028341      10.54138920      10.60579853      -0.00026805       0.00055158      -0.00085807
V        9.05210233      -0.03281441       0.04482726       0.00050093      -0.00053801       0.00020328
V       10.62013837       1.43981771       1.59364560       0.00095701      -0.00282565       0.00135300
V        9.07212580      -0.03293828       2.98905969      -0.00140034      -0.00248266      -0.00030781
V       10.42016062       1.50597299       4.61453306      -0.00177515      -0.00131453       0.00080069
V        9.06908978      -0.10605256       5.95097783      -0.00180576       0.00095846       0.00089897
V        9.07222287      -0.11020568       9.19317818      -0.00055619      -0.00078094      -0.00041032
V        9.06834886       3.01448738       0.06559591       0.00121575      -0.00089739      -0.00046130
V       10.51663810       4.38023796       1.65792043       0.00193514      -0.00136924       0.00147219
V        9.08600314       2.98537772       3.02143241       0.00041326      -0.00106140       0.00047291
V       10.55600005       4.46723219       4.62182378      -0.00012389      -0.00050325       0.00184176
V       10.55021537       4.54299378       7.54186406       0.00042807       0.00079445       0.00136399
V        9.09183588       3.15622420       9.19776954      -0.00104353       0.00041509       0.00190883
V       10.48840723       4.48771789      10.51744520       0.00101423      -0.00024495       0.00273961
V        9.01513179       6.04388387       0.01239602       0.00204255      -0.00002789       0.00132712
V       10.61374940       7.59120763       1.51846088       0.00178845      -0.00219878       0.00089093
V        9.07812373       6.02255384       3.04560901       0.00054948      -0.00201908       0.00059991
V       10.58538613       7.49595774       4.57212027      -0.00029084      -0.00046460      -0.00030361
V        9.05254943       6.08639702       6.05785235      -0.00096774       0.00017691       0.00180665
V       10.57782437       7.54203766       7.55238935      -0.00093157       0.00009142       0.00131117
V        9.04483108       6.08782045       9.06687137      -0.00000704       0.00069217       0.00097580
V       10.53006750       7.63435664      10.55173041       0.00215464      -0.00019076      -0.00004528
V        9.03835481       9.03501056       0.01036545       0.00038692      -0.00050569      -0.00056893
V       10.59160149      10.57003969       1.45981952      -0.00077514      -0.00260784      -0.00087082
V       10.59027095      10.62067999       4.52987304      -0.00075132      -0.00180159       0.00011309
V        9.03435137       9.02538023       6.03181846      -0.00087755      -0.00115646      -0.00019798
V        9.03662365       9.02718625       9.08748242       0.00000827       0.00087765      -0.00051954
V       10.62201425      10.51613069      10.64635248       0.00030523       0.00039681      -0.00127241
W        1.51681326      10.56268180       1.48838907      -0.00073809       0.00085897      -0.00068438
W        4.55951611       7.55653973       4.50770932      -0.00025742       0.00084812      -0.00082250
W       10.58694130       1.49019986      10.62714422       0.00001719      -0.00034902       0.00099321
W       10.55945424      10.58531598       7.56822526      -0.00167207       0.00072335      -0.00070030
Zr       0.03085129       5.93986472      -0.02255542       0.00191776      -0.00158157       0.00251284
Zr       7.53709792       1.56995070       7.53793150      -0.00246378       0.00054048       0.00060874
