127
Lattice="12.093483239 -0.001965245 -0.001402732 -0.001967216 12.088895931 0.017572922 -0.001397384 0.01757218 12.092468779" Properties=species:S:1:pos:R:3:forces:R:3 stress="0.00432831805805364 -0.0002592785305983164 -0.0009350155161120673 -0.0002592785305983164 0.004082939368278666 4.273561298492267e-05 -0.0009350155161120673 4.273561298492267e-05 0.004440340663844994" free_energy=-1142.14399686 energy=-1142.12828484 pbc="T T T"
Cr       0.00852000       9.09036000      12.09210000       0.00012700      -0.00011700      -0.00025200
Cr       4.58221000       4.51867000       1.52445000       0.00001500       0.00002600       0.00009900
Cr       4.54643000       7.55890000       1.50338000      -0.00036400       0.00014200       0.00009700
Cr       9.11596000       3.15601000       5.91675000      -0.00015800      -0.00007000      -0.00011300
Ti      12.05016000       3.07352000       2.97885000      -0.00009700      -0.00014700      -0.00034100
Ti       1.46709000       7.52798000       4.50112000      -0.00009900       0.00024900       0.00011300
Ti       2.88078000       0.13422000       6.22316000      -0.00014300       0.00059200       0.00000900
Ti       2.86340000       2.94555000       6.18090000       0.00016700       0.00055300      -0.00039200
Ti       3.04617000       9.13910000       6.12420000      -0.00010700       0.00001200      -0.00002000
Ti      10.51498000       1.56885000       7.46206000       0.00023700       0.00007600      -0.00012600
Ti       9.02836000       9.09813000       3.04954000      -0.00030200       0.00005800       0.00010100
V        0.02140000      12.10354000      12.07378000      -0.00021000       0.00076200       0.00022200
V        1.55889000       1.49458000       1.47192000       0.00001700       0.00015100       0.00034000
V       12.05642000       0.03710000       3.01403000      -0.00030600       0.00016100       0.00043300
V        0.07260000       0.05878000       6.02411000      -0.00102300       0.00001500       0.00064800
V        1.48065000       1.46916000       4.35189000      -0.00043400       0.00000100       0.00038400
V        0.15401000       0.03052000       8.98285000      -0.00046700       0.00005700       0.00028900
V        1.57419000       1.47409000      10.66230000      -0.00005100       0.00019000       0.00049800
V        0.02818000       2.96485000      12.03734000       0.00046200      -0.00023200       0.00001700
V        1.67027000       4.46847000       1.53158000       0.00035500      -0.00012000      -0.00004900
V        1.49616000       4.60864000       4.54579000       0.00015300       0.00038100      -0.00012900
V        0.08944000       2.99707000       6.03186000      -0.00004400      -0.00017800       0.00035500
V        1.49105000       4.71725000       7.56233000       0.00004300       0.00012900       0.00002000
V        0.20880000       2.94041000       8.89413000       0.00012600      -0.00036400      -0.00017400
V        1.64184000       4.41659000      10.47904000       0.00046400      -0.00023100       0.00001700
V        1.53946000       7.59705000       1.55322000       0.00043000       0.00035600       0.00011400
V       12.02377000       5.99894000       3.00215000       0.00046600       0.00014100      -0.00028000
V       12.02987000       6.03583000       6.07448000       0.00003700      -0.00000200       0.00009900
V        1.47713000       7.54118000       7.61968000      -0.00034300      -0.00002800       0.00012100
V        0.00159000       6.04424000       9.04769000       0.00036600      -0.00010000      -0.00017000
V        1.58112000       7.64343000      10.59524000       0.00035300      -0.00004900       0.00013100
V       12.01089000       9.09788000       3.02778000       0.00003200       0.00001700       0.00021800
V        1.42719000      10.63569000       4.52920000      -0.00045200       0.00006200       0.00062600
V       12.05231000       9.09528000       6.08247000      -0.00061000       0.00007200       0.00042800
V        1.46728000      10.44489000       7.67043000      -0.00077300      -0.00019600       0.00070000
V        0.00331000       9.07369000       9.10319000      -0.00037700      -0.00002300       0.00000800
V        1.51424000      10.56677000      10.60757000       0.00003600      -0.00001100       0.00049900
V        3.05481000      12.08980000      12.08499000      -0.00019300       0.00012500       0.00041700
V        4.52293000       1.50358000       1.51748000      -0.00003800       0.00014600       0.00013000
V        3.02036000       0.02435000       3.03505000      -0.00035600       0.00007800       0.00044400
V        4.52205000       1.54142000       4.49360000      -0.00046300       0.00008900       0.00028200
V        4.68072000       1.56027000       7.63858000      -0.00062100       0.00020000       0.00021900
V        2.99477000       0.06655000       9.06981000      -0.00008700       0.00010600       0.00079000
V        4.55424000       1.52110000      10.63061000      -0.00012700       0.00005300      -0.00002400
V        3.09065000       3.02234000       0.00780000       0.00042600       0.00021000       0.00026700
V        3.04181000       3.04972000       3.00370000       0.00032400       0.00033500      -0.00006700
V        4.52418000       4.51972000       4.55014000      -0.00006000      -0.00000500      -0.00053700
V        4.53278000       4.56263000       7.58844000      -0.00010500       0.00003300      -0.00032000
V        3.00695000       2.95269000       9.02480000      -0.00003500       0.00018700      -0.00019000
V        4.54740000       4.55329000      10.59561000       0.00010700      -0.00004100      -0.00015400
V        3.13366000       6.02974000       0.05020000       0.00069700       0.00006600       0.00043000
V        3.10979000       6.01364000       2.95613000       0.00050000       0.00028900      -0.00052500
V        3.05469000       6.02190000       6.08357000      -0.00005600       0.00018300      -0.00034100
V        4.56844000       7.51572000       7.64870000      -0.00031500       0.00019800      -0.00020200
V        3.04438000       6.05391000       9.10828000       0.00002500       0.00005400      -0.00014900
V        4.54556000       7.56123000      10.59743000       0.00010500       0.00008600      -0.00020300
V        3.08505000       9.00957000       0.03505000       0.00015100       0.00000200       0.00066700
V        4.54240000      10.59777000       1.52859000      -0.00026600      -0.00003000       0.00041400
V        3.08589000       9.07805000       3.00511000      -0.00031400       0.00033600      -0.00002400
V        4.54873000      10.65748000       4.50583000      -0.00066200       0.00004900       0.00046900
V        4.58499000      10.63467000       7.72485000      -0.00077000       0.00015500       0.00016400
V        3.04441000       9.07695000       9.12750000      -0.00019300      -0.00006400       0.00015800
V        4.52781000      10.57635000      10.63670000      -0.00010900      -0.00015000       0.00019100
V        6.04759000      12.08625000       0.05533000       0.00020000       0.00005600       0.00006500
V        7.52674000       1.51184000       1.51258000       0.00028700      -0.00002300       0.00007500
V        6.03131000       0.02683000       3.01493000      -0.00004700       0.00004000       0.00019300
V        7.53955000       1.56688000       4.46789000      -0.00032800      -0.00022200      -0.00013400
V        5.93971000      12.03834000       6.00028000      -0.00069600      -0.00002900       0.00015300
V        6.01251000      12.02807000       9.21022000      -0.00041400       0.00001600      -0.00020100
V        7.54362000       1.51812000      10.65869000       0.00016000      -0.00000700      -0.00012600
V        6.02900000       3.05046000       0.06211000       0.00022500      -0.00002000      -0.00003800
V        7.53018000       4.54983000       1.52005000       0.00072300      -0.00005800      -0.00054500
V        6.00312000       3.06998000       2.97954000       0.00005200       0.00009900      -0.00051600
V        7.55996000       4.52072000       4.56090000       0.00028000      -0.00018900      -0.00036400
V        5.93845000       3.12238000       5.95333000      -0.00008200      -0.00028900      -0.00018300
V        7.57614000       4.60089000       7.53757000       0.00025200      -0.00020500      -0.00038100
V        5.97777000       3.14084000       9.19675000       0.00000400      -0.00010800      -0.00045900
V        7.53533000       4.57225000      10.58809000       0.00065800      -0.00011000      -0.00030100
V        6.02395000       6.05346000       0.05298000       0.00031400       0.00003200      -0.00003500
V        7.53343000       7.53294000       1.49277000       0.00061200      -0.00020700      -0.00054500
V        6.03926000       6.04951000       2.99634000       0.00004200      -0.00004500      -0.00082900
V        7.54582000       7.52255000       4.58548000       0.00016000       0.00005500      -0.00039800
V        6.07033000       6.05274000       6.07907000       0.00010300       0.00011700      -0.00057900
V        7.56320000       7.55189000       7.58688000       0.00003400       0.00001800      -0.00037900
V        6.05791000       6.07615000       9.08972000       0.00039400       0.00022300      -0.00058500
V        7.55000000       7.56460000      10.61401000       0.00061400      -0.00007100      -0.00019800
V        6.04034000       9.02506000       0.05417000       0.00012000      -0.00021100       0.00006400
V        7.50133000      10.60604000       1.50228000       0.00007900      -0.00025100       0.00013800
V        6.05390000       9.05855000       3.01381000      -0.00009100      -0.00010800      -0.00020400
V        7.49570000      10.63989000       4.58525000      -0.00047700      -0.00017000       0.00002300
V        6.05766000       9.08440000       6.10310000      -0.00019500       0.00007200      -0.00008000
V        7.53678000      10.53313000       7.59828000      -0.00068600      -0.00018700      -0.00006300
V        6.06297000       9.05211000       9.12753000       0.00006400      -0.00004600      -0.00018200
V        7.57221000      10.56448000      10.63825000       0.00010600      -0.00011000      -0.00017200
V        9.06237000      12.06590000       0.04621000      -0.00010200       0.00008100       0.00027800
V       10.55171000       1.46722000       1.46265000       0.00044700       0.00005300       0.00016500
V        9.05196000       0.01467000       2.98328000      -0.00048300       0.00011100      -0.00001800
V       10.53087000       1.53361000       4.54734000      -0.00033100      -0.00001500       0.00014800
V        9.08486000      12.00255000       5.90458000      -0.00073800      -0.00009000       0.00006700
V        9.12075000      11.98150000       9.19926000      -0.00048000      -0.00005600       0.00019000
V        9.03953000       3.02999000      12.08914000       0.00043400      -0.00014600       0.00007200
V       10.36643000       4.48909000       1.53206000       0.00115100      -0.00014000      -0.00040200
V        9.03499000       3.01426000       2.97474000       0.00003300      -0.00026300      -0.00030200
V       10.49796000       4.53504000       4.59031000       0.00009900      -0.00006700      -0.00014500
V       10.59905000       4.52534000       7.49907000       0.00007500      -0.00010900      -0.00016300
V        9.13689000       3.16660000       9.14910000      -0.00009200      -0.00018300      -0.00033800
V       10.52633000       4.47569000      10.43822000       0.00084600       0.00025200       0.00021200
V        9.00402000       6.07984000      12.08315000       0.00062400       0.00003000      -0.00019200
V       10.58748000       7.63733000       1.49407000       0.00043600      -0.00016300      -0.00006300
V        9.00709000       6.07679000       3.03343000       0.00014100      -0.00013500      -0.00045800
V       10.59121000       7.53414000       4.58786000      -0.00015000      -0.00005500      -0.00002800
V        9.04955000       6.09065000       6.06488000      -0.00028800       0.00009300      -0.00031600
V       10.58446000       7.54305000       7.56618000      -0.00001800      -0.00001800      -0.00007200
V        9.07732000       6.08071000       9.05707000      -0.00000500       0.00026000      -0.00035500
V       10.56753000       7.64518000      10.53494000       0.00042500      -0.00014800      -0.00000300
V        9.04442000       9.05075000       0.03470000      -0.00005600      -0.00029500      -0.00003600
V       10.61134000      10.59228000       1.47452000      -0.00005500      -0.00005400       0.00047200
V       10.60415000      10.63216000       4.53901000      -0.00032000      -0.00021400       0.00033200
V        9.04096000       9.04279000       6.05048000      -0.00068800      -0.00001600       0.00004800
V        9.06251000       9.04388000       9.09770000      -0.00042100      -0.00026500      -0.00017300
V       10.64134000      10.53466000      10.64460000       0.00008200      -0.00010900       0.00031600
W        1.51095000      10.56078000       1.50562000       0.00032200      -0.00041100       0.00021900
W        4.55645000       7.54751000       4.55110000      -0.00005600       0.00000600       0.00025700
W       10.63230000       1.49315000      10.52158000       0.00055400      -0.00043300       0.00066000
W       10.58552000      10.59349000       7.57162000       0.00053000      -0.00050000      -0.00022300
Zr       0.00452000       5.95724000      12.06563000       0.00038300       0.00009400      -0.00000900
Zr       7.57039000       1.57486000       7.53069000       0.00013600      -0.00018200      -0.00019200
