 vasp.6.4.2 20Jul23 (build Sep 20 2024 16:56:05) complex                         
 executed on              LinuxNV date 2025.04.25  12:07:24
 running    4 mpi-ranks, with    8 threads/rank, on    1 nodes
 distrk:  each k-point on    4 cores,    1 groups
 distr:  one band on NCORE=   1 cores,    4 groups
 OpenACC runtime initialized ...    4 GPUs detected


--------------------------------------------------------------------------------------------------------


 INCAR:
   ENCUT = 520.000000
   POTIM = 0.200000
   SIGMA = 0.200000
   EDIFF = 1.00e-06
   EDIFFG = -1.00e-02
   ALGO = Normal
   GGA = PE
   PREC = Accurate
   IBRION = 2
   ISIF = 2
   ISMEAR = 1
   LORBIT = 11
   NELM = 100
   NSW = -1
   LCHARG = .TRUE.
   LWAVE = .FALSE.
   LREAL = .FALSE.

 POTCAR:    PAW_PBE Cr_pv 02Aug2007               
 POTCAR:    PAW_PBE Ti_pv 07Sep2000               
 POTCAR:    PAW_PBE V_pv 07Sep2000                
 POTCAR:    PAW_PBE W_sv 04Sep2015                
 POTCAR:    PAW_PBE Zr_sv 04Jan2005               
 POTCAR:    PAW_PBE Cr_pv 02Aug2007               
   SHA256 =  c9a7df34d3cdbacf1090e328ef39c0b420964e11c23f63548d1ac9dd218cdba0 Cr_pv/POTCAR          
   COPYR  = (c) Copyright 02Aug2007 Georg Kresse                                                    
   COPYR  = This file is part of the software VASP. Any use, copying, and all other rights are regul
   COPYR  = If you do not have a valid VASP license, you may not use, copy or distribute this file. 
   VRHFIN =Cr : p6d5s1                                                                              
   LEXCH  = PE                                                                                      
   EATOM  =  1647.9177 eV,  121.1185 Ry                                                             
                                                                                                    
   TITEL  = PAW_PBE Cr_pv 02Aug2007                                                                 
   LULTRA =        F    use ultrasoft PP ?                                                          
   IUNSCR =        1    unscreen: 0-lin 1-nonlin 2-no                                               
   RPACOR =    2.080    partial core radius                                                         
   POMASS =   51.996; ZVAL   =   12.000    mass and valenz                                          
   RCORE  =    2.300    outmost cutoff radius                                                       
   RWIGS  =    2.500; RWIGS  =    1.323    wigner-seitz radius (au A)                               
   ENMAX  =  265.681; ENMIN  =  199.261 eV                                                          
   ICORE  =        3    local potential                                                             
   LCOR   =        T    correct aug charges                                                         
   LPAW   =        T    paw PP                                                                      
   EAUG   =  519.424                                                                                
   DEXC   =    0.000                                                                                
   RMAX   =    2.356    core radius for proj-oper                                                   
   RAUG   =    1.300    factor for augmentation sphere                                              
   RDEP   =    2.447    radius for radial grids                                                     
   RDEPT  =    1.882    core radius for aug-charge                                                  
                                                                                                    
   Atomic configuration                                                                             
    8 entries                                                                                       
     n  l   j            E        occ.                                                              
     1  0  0.50     -5880.4963   2.0000                                                             
     2  0  0.50      -667.0865   2.0000                                                             
     2  1  1.50      -560.6250   6.0000                                                             
     3  0  0.50       -73.9860   2.0000                                                             
     3  1  1.50       -45.4378   6.0000                                                             
     3  2  2.50        -2.9137   5.0000                                                             
     4  0  0.50        -4.0071   1.0000                                                             
     4  3  2.50        -1.3606   0.0000                                                             
   Description                                                                                      
     l       E           TYP  RCUT    TYP  RCUT                                                     
     1    -45.4377911     23  2.000                                                                 
     1      1.3605826     23  2.000                                                                 
     2     -2.9136672     23  2.300                                                                 
     2     -4.2742498     23  2.300                                                                 
     0     -4.0071320     23  2.300                                                                 
     0      9.4498803     23  2.300                                                                 
     3      2.7211652     23  2.300                                                                 
  local pseudopotential read in
  partial core-charges read in
  partial kinetic energy density read in
  atomic valenz-charges read in
  non local Contribution for L=            1  read in
    real space projection operators read in
  non local Contribution for L=            1  read in
    real space projection operators read in
  non local Contribution for L=            2  read in
    real space projection operators read in
  non local Contribution for L=            2  read in
    real space projection operators read in
  non local Contribution for L=            0  read in
    real space projection operators read in
  non local Contribution for L=            0  read in
    real space projection operators read in
    PAW grid and wavefunctions read in
 
   number of l-projection  operators is LMAX  =            6
   number of lm-projection operators is LMMAX =           18
 
 POTCAR:    PAW_PBE Ti_pv 07Sep2000               
   SHA256 =  f757a1b2c6d082f4c628fa3d987464a8763bf92e53844ac0500b0e2ddc9ce5c0 Ti_pv/POTCAR          
   COPYR  = (c) Copyright 07Sep2000 Georg Kresse                                                    
   COPYR  = This file is part of the software VASP. Any use, copying, and all other rights are regul
   COPYR  = If you do not have a valid VASP license, you may not use, copy or distribute this file. 
   VRHFIN =Ti: d3 s1                                                                                
   LEXCH  = PE                                                                                      
   EATOM  =  1042.5995 eV,   76.6289 Ry                                                             
                                                                                                    
   TITEL  = PAW_PBE Ti_pv 07Sep2000                                                                 
   LULTRA =        F    use ultrasoft PP ?                                                          
   IUNSCR =        1    unscreen: 0-lin 1-nonlin 2-no                                               
   RPACOR =    2.200    partial core radius                                                         
   POMASS =   47.880; ZVAL   =   10.000    mass and valenz                                          
   RCORE  =    2.500    outmost cutoff radius                                                       
   RWIGS  =    2.500; RWIGS  =    1.323    wigner-seitz radius (au A)                               
   ENMAX  =  222.335; ENMIN  =  166.751 eV                                                          
   RCLOC  =    1.701    cutoff for local pot                                                        
   LCOR   =        T    correct aug charges                                                         
   LPAW   =        T    paw PP                                                                      
   EAUG   =  482.848                                                                                
   DEXC   =    0.000                                                                                
   RMAX   =    2.564    core radius for proj-oper                                                   
   RAUG   =    1.300    factor for augmentation sphere                                              
   RDEP   =    2.538    radius for radial grids                                                     
   RDEPT  =    1.952    core radius for aug-charge                                                  
                                                                                                    
   Atomic configuration                                                                             
    8 entries                                                                                       
     n  l   j            E        occ.                                                              
     1  0  0.50     -4865.3608   2.0000                                                             
     2  0  0.50      -533.1368   2.0000                                                             
     2  1  1.50      -440.5031   6.0000                                                             
     3  0  0.50       -59.3186   2.0000                                                             
     3  1  1.50       -35.7012   6.0000                                                             
     3  2  2.50        -1.9157   3.0000                                                             
     4  0  0.50        -3.7291   1.0000                                                             
     4  3  2.50        -1.3606   0.0000                                                             
   Description                                                                                      
     l       E           TYP  RCUT    TYP  RCUT                                                     
     1    -35.7012140     23  2.300                                                                 
     1     -1.3605826     23  2.300                                                                 
     2     -1.9156996     23  2.500                                                                 
     2     -0.4063033     23  2.500                                                                 
     0     -3.7290856     23  2.500                                                                 
     0     20.4087390     23  2.500                                                                 
  local pseudopotential read in
  partial core-charges read in
  partial kinetic energy density read in
  atomic valenz-charges read in
  non local Contribution for L=            1  read in
    real space projection operators read in
  non local Contribution for L=            1  read in
    real space projection operators read in
  non local Contribution for L=            2  read in
    real space projection operators read in
  non local Contribution for L=            2  read in
    real space projection operators read in
  non local Contribution for L=            0  read in
    real space projection operators read in
  non local Contribution for L=            0  read in
    real space projection operators read in
    PAW grid and wavefunctions read in
 
   number of l-projection  operators is LMAX  =            6
   number of lm-projection operators is LMMAX =           18
 
 POTCAR:    PAW_PBE V_pv 07Sep2000                
   SHA256 =  1175d3c8cb4ffd1d150a520fa74fae5c3ec72c0849b5615a94a5372dd2cf07f7 V_pv/POTCAR           
   COPYR  = (c) Copyright 07Sep2000 Georg Kresse                                                    
   COPYR  = This file is part of the software VASP. Any use, copying, and all other rights are regul
   COPYR  = If you do not have a valid VASP license, you may not use, copy or distribute this file. 
   VRHFIN =V: p6 d4 s1                                                                              
   LEXCH  = PE                                                                                      
   EATOM  =  1321.6206 eV,   97.1364 Ry                                                             
                                                                                                    
   TITEL  = PAW_PBE V_pv 07Sep2000                                                                  
   LULTRA =        F    use ultrasoft PP ?                                                          
   IUNSCR =        1    unscreen: 0-lin 1-nonlin 2-no                                               
   RPACOR =    1.700    partial core radius                                                         
   POMASS =   50.941; ZVAL   =   11.000    mass and valenz                                          
   RCORE  =    2.300    outmost cutoff radius                                                       
   RWIGS  =    2.300; RWIGS  =    1.217    wigner-seitz radius (au A)                               
   ENMAX  =  263.673; ENMIN  =  197.755 eV                                                          
   RCLOC  =    1.779    cutoff for local pot                                                        
   LCOR   =        T    correct aug charges                                                         
   LPAW   =        T    paw PP                                                                      
   EAUG   =  598.473                                                                                
   DEXC   =    0.000                                                                                
   RMAX   =    2.359    core radius for proj-oper                                                   
   RAUG   =    1.300    factor for augmentation sphere                                              
   RDEP   =    2.430    radius for radial grids                                                     
   RDEPT  =    1.700    core radius for aug-charge                                                  
                                                                                                    
   Atomic configuration                                                                             
    8 entries                                                                                       
     n  l   j            E        occ.                                                              
     1  0  0.50     -5360.7193   2.0000                                                             
     2  0  0.50      -598.4546   2.0000                                                             
     2  1  1.50      -499.0155   6.0000                                                             
     3  0  0.50       -66.5711   2.0000                                                             
     3  1  1.50       -40.5282   6.0000                                                             
     3  2  2.50        -2.4291   4.0000                                                             
     4  0  0.50        -3.8743   1.0000                                                             
     4  3  2.50        -1.3606   0.0000                                                             
   Description                                                                                      
     l       E           TYP  RCUT    TYP  RCUT                                                     
     1    -40.5282431     23  2.000                                                                 
     1      5.4423304     23  2.000                                                                 
     2     -2.4290905     23  2.300                                                                 
     2     -1.0472488     23  2.300                                                                 
     0     -3.8742754     23  2.300                                                                 
     0     27.2116520     23  2.300                                                                 
  local pseudopotential read in
  partial core-charges read in
  partial kinetic energy density read in
  atomic valenz-charges read in
  non local Contribution for L=            1  read in
    real space projection operators read in
  non local Contribution for L=            1  read in
    real space projection operators read in
  non local Contribution for L=            2  read in
    real space projection operators read in
  non local Contribution for L=            2  read in
    real space projection operators read in
  non local Contribution for L=            0  read in
    real space projection operators read in
  non local Contribution for L=            0  read in
    real space projection operators read in
    PAW grid and wavefunctions read in
 
   number of l-projection  operators is LMAX  =            6
   number of lm-projection operators is LMMAX =           18
 
 POTCAR:    PAW_PBE W_sv 04Sep2015                
   SHA256 =  931c2d770f65867ef30f3db3421922900fc0890ebac5c3e12f63b6a2064023d7 W_sv/POTCAR           
   COPYR  = (c) Copyright 04Sep2015 Georg Kresse                                                    
   COPYR  = This file is part of the software VASP. Any use, copying, and all other rights are regul
   COPYR  = If you do not have a valid VASP license, you may not use, copy or distribute this file. 
   VRHFIN =W : 5p6s5d                                                                               
   LEXCH  = PE                                                                                      
   EATOM  =  1865.5791 eV,  137.1162 Ry                                                             
                                                                                                    
   TITEL  = PAW_PBE W_sv 04Sep2015                                                                  
   LULTRA =        F    use ultrasoft PP ?                                                          
   IUNSCR =        1    unscreen: 0-lin 1-nonlin 2-no                                               
   RPACOR =    2.330    partial core radius                                                         
   POMASS =  183.850; ZVAL   =   14.000    mass and valenz                                          
   RCORE  =    2.500    outmost cutoff radius                                                       
   RWIGS  =    2.750; RWIGS  =    1.455    wigner-seitz radius (au A)                               
   ENMAX  =  223.057; ENMIN  =  167.293 eV                                                          
   ICORE  =        3    local potential                                                             
   LCOR   =        T    correct aug charges                                                         
   LPAW   =        T    paw PP                                                                      
   EAUG   =  373.438                                                                                
   DEXC   =    0.000                                                                                
   RMAX   =    2.565    core radius for proj-oper                                                   
   RAUG   =    1.300    factor for augmentation sphere                                              
   RDEP   =    2.539    radius for radial grids                                                     
   RDEPT  =    2.126    core radius for aug-charge                                                  
                                                                                                    
   Atomic configuration                                                                             
   15 entries                                                                                       
     n  l   j            E        occ.                                                              
     1  0  0.50    -69465.5834   2.0000                                                             
     2  0  0.50    -11986.2640   2.0000                                                             
     2  1  1.50    -10479.8613   6.0000                                                             
     3  0  0.50     -2759.0756   2.0000                                                             
     3  1  1.50     -2313.1855   6.0000                                                             
     3  2  2.50     -1801.1183  10.0000                                                             
     4  0  0.50      -567.6789   2.0000                                                             
     4  1  1.50      -421.4692   6.0000                                                             
     4  2  2.50      -236.3471  10.0000                                                             
     4  3  3.50       -31.2665  14.0000                                                             
     5  0  0.50       -77.1084   2.0000                                                             
     6  0  0.50        -5.1438   1.0000                                                             
     5  1  1.50       -41.3856   6.0000                                                             
     5  2  2.50        -3.3185   5.0000                                                             
     5  3  2.50        -1.3606   0.0000                                                             
   Description                                                                                      
     l       E           TYP  RCUT    TYP  RCUT                                                     
     0    -77.1084470     23  2.100                                                                 
     0     -5.1437956     23  2.300                                                                 
     1    -41.3855615     23  2.500                                                                 
     1     -2.7211652     23  2.500                                                                 
     2     -3.3185025     23  2.500                                                                 
     2     -1.5965151     23  2.500                                                                 
     3     -1.3605826     23  2.500                                                                 
  local pseudopotential read in
  partial core-charges read in
  partial kinetic energy density read in
  kinetic energy density of atom read in
  atomic valenz-charges read in
  non local Contribution for L=            0  read in
    real space projection operators read in
  non local Contribution for L=            0  read in
    real space projection operators read in
  non local Contribution for L=            1  read in
    real space projection operators read in
  non local Contribution for L=            1  read in
    real space projection operators read in
  non local Contribution for L=            2  read in
    real space projection operators read in
  non local Contribution for L=            2  read in
    real space projection operators read in
    PAW grid and wavefunctions read in
 
   number of l-projection  operators is LMAX  =            6
   number of lm-projection operators is LMMAX =           18
 
 POTCAR:    PAW_PBE Zr_sv 04Jan2005               
   SHA256 =  25aed69cb10325f9d37c5c68912b61a17387d1f8e4f1d804860ffa10c8a4bf76 Zr_sv/POTCAR          
   COPYR  = (c) Copyright 04Jan2005 Georg Kresse                                                    
   COPYR  = This file is part of the software VASP. Any use, copying, and all other rights are regul
   COPYR  = If you do not have a valid VASP license, you may not use, copy or distribute this file. 
   VRHFIN =Zr: 4s4p5s4d                                                                             
   LEXCH  = PE                                                                                      
   EATOM  =  1284.2219 eV,   94.3876 Ry                                                             
                                                                                                    
   TITEL  = PAW_PBE Zr_sv 04Jan2005                                                                 
   LULTRA =        F    use ultrasoft PP ?                                                          
   IUNSCR =        1    unscreen: 0-lin 1-nonlin 2-no                                               
   RPACOR =    2.200    partial core radius                                                         
   POMASS =   91.224; ZVAL   =   12.000    mass and valenz                                          
   RCORE  =    2.500    outmost cutoff radius                                                       
   RWIGS  =    3.070; RWIGS  =    1.625    wigner-seitz radius (au A)                               
   ENMAX  =  229.898; ENMIN  =  172.424 eV                                                          
   ICORE  =        3    local potential                                                             
   LCOR   =        T    correct aug charges                                                         
   LPAW   =        T    paw PP                                                                      
   EAUG   =  461.257                                                                                
   DEXC   =    0.000                                                                                
   RMAX   =    2.561    core radius for proj-oper                                                   
   RAUG   =    1.300    factor for augmentation sphere                                              
   RDEP   =    2.597    radius for radial grids                                                     
   RDEPT  =    2.007    core radius for aug-charge                                                  
                                                                                                    
   Atomic configuration                                                                             
   11 entries                                                                                       
     n  l   j            E        occ.                                                              
     1  0  0.50    -17820.0161   2.0000                                                             
     2  0  0.50     -2467.0882   2.0000                                                             
     2  1  1.50     -2199.6095   6.0000                                                             
     3  0  0.50      -402.4863   2.0000                                                             
     3  1  1.50      -315.3675   6.0000                                                             
     3  2  2.50      -172.4472  10.0000                                                             
     4  0  0.50       -52.4146   2.0000                                                             
     5  0  0.50        -3.8421   1.0000                                                             
     4  1  1.50       -30.5054   6.0000                                                             
     4  2  2.50        -2.3341   3.0000                                                             
     4  3  2.50        -1.3606   0.0000                                                             
   Description                                                                                      
     l       E           TYP  RCUT    TYP  RCUT                                                     
     0    -52.4145962     23  2.200                                                                 
     0     -3.8421270     23  2.500                                                                 
     1    -30.5053914     23  2.200                                                                 
     1     20.4087390     23  2.200                                                                 
     2     -2.3340816     23  2.500                                                                 
     2     -0.6120942     23  2.500                                                                 
     3     -4.0817478     23  2.500                                                                 
  local pseudopotential read in
  partial core-charges read in
  partial kinetic energy density read in
  atomic valenz-charges read in
  non local Contribution for L=            0  read in
    real space projection operators read in
  non local Contribution for L=            0  read in
    real space projection operators read in
  non local Contribution for L=            1  read in
    real space projection operators read in
  non local Contribution for L=            1  read in
    real space projection operators read in
  non local Contribution for L=            2  read in
    real space projection operators read in
  non local Contribution for L=            2  read in
    real space projection operators read in
    PAW grid and wavefunctions read in
 
   number of l-projection  operators is LMAX  =            6
   number of lm-projection operators is LMMAX =           18
 
 -----------------------------------------------------------------------------
|                                                                             |
|               ----> ADVICE to this user running VASP <----                  |
|                                                                             |
|     You have a (more or less) 'large supercell' and for larger cells it     |
|     might be more efficient to use real-space projection operators.         |
|     Therefore, try LREAL= Auto in the INCAR file.                           |
|     Mind: For very accurate calculation, you might also keep the            |
|     reciprocal projection scheme (i.e. LREAL=.FALSE.).                      |
|                                                                             |
 -----------------------------------------------------------------------------

  PAW_PBE Cr_pv 02Aug2007               :
 energy of atom  1       EATOM=-1647.9177
 kinetic energy error for atom=    0.0057 (will be added to EATOM!!)
  PAW_PBE Ti_pv 07Sep2000               :
 energy of atom  2       EATOM=-1042.5995
 kinetic energy error for atom=    0.0019 (will be added to EATOM!!)
  PAW_PBE V_pv 07Sep2000                :
 energy of atom  3       EATOM=-1321.6206
 kinetic energy error for atom=    0.0054 (will be added to EATOM!!)
  PAW_PBE W_sv 04Sep2015                :
 energy of atom  4       EATOM=-1865.5791
 kinetic energy error for atom=    0.0026 (will be added to EATOM!!)
  PAW_PBE Zr_sv 04Jan2005               :
 energy of atom  5       EATOM=-1284.2219
 kinetic energy error for atom=    0.0043 (will be added to EATOM!!)
 
 
 POSCAR: Cr Ti V  W  Zr
  positions in cartesian coordinates
  No initial velocities read in
 exchange correlation table for  LEXCH =        8
   RHO(1)=    0.500       N(1)  =     2000
   RHO(2)=  100.500       N(2)  =     4000
 


--------------------------------------------------------------------------------------------------------


 ion  position               nearest neighbor table
   1  0.003  0.404  0.004-  21 2.51  17 2.54  25 2.55  49 2.55  24 2.58 107 2.60  44 2.60  10 2.62
                            48 2.92  45 2.98  26 3.00 111 3.04
   2  0.402  0.004  0.801-   3 2.52  75 2.55  81 2.55  80 2.55  59 2.56  39 2.58  54 2.60  56 2.61
                            84 2.93  55 2.95  38 2.97  60 2.97  76 3.02  74 3.04
   3  0.402  0.197  0.802-  63 2.49   2 2.52  84 2.52  60 2.55  85 2.56  38 2.56  66 2.57  43 2.57
                            39 2.96  81 2.96  59 3.00  42 3.02  88 3.03  64 3.05
   4  0.398  0.603  0.596-  46 2.51  98 2.52  51 2.52  92 2.53  69 2.57  74 2.58  70 2.59   9 2.82
                            50 3.01  97 3.02  93 3.04 119 3.08 118 3.08
   5  0.600  0.397  0.397- 114 2.54  61 2.56  87 2.57  86 2.58 119 2.59 120 2.59 109 2.64  91 2.66
                            82 3.02 110 3.03 121 3.04  65 3.05  92 3.05
   6  0.805  0.001  0.199-  99 2.53  13 2.55  77 2.58 104 2.60 100 2.61 122 2.61  94 2.62  18 2.72
                           115 2.95 105 2.95   7 3.02
   7  0.996  0.205  0.195- 104 2.58  21 2.61  17 2.62  99 2.63  18 2.63  41 2.67  46 2.72  13 2.73
                           103 2.91  12 2.91  22 2.95  45 2.97   6 3.02
   8  0.201  0.803  0.004-  57 2.64  52 2.66  30 2.66  35 2.67  71 2.76  55 2.76  48 2.76  29 2.78
                            36 2.91  34 2.94 123 3.02  72 3.03
   9  0.381  0.378  0.582- 118 2.58 119 2.67  63 2.67  87 2.69  66 2.74  93 2.80   4 2.82  62 2.86
                            42 2.87  46 2.93
  10  0.803  0.204  0.803- 111 2.55 102 2.56   1 2.62  20 2.67 103 2.67  84 2.69  79 2.69 106 2.69
                            17 2.93  24 2.93 107 2.97  83 3.00
  11  0.791  0.588  0.798- 111 2.54  29 2.59 112 2.64  87 2.64  93 2.67 114 2.75 124 2.76  30 2.79
                            88 2.90 110 3.03  25 3.04
  12  0.011  0.014  0.014-  41 2.50  13 2.58  35 2.59  17 2.64  30 2.68  99 2.69  16 2.72 124 2.76
                             7 2.91
  13  0.002  0.002  0.205-   6 2.55  12 2.58  31 2.62  14 2.64  36 2.65 115 2.65   7 2.73  18 2.74
                            37 2.92 122 3.02
  14  0.001  0.997  0.405-  18 2.52  32 2.54  37 2.55  15 2.55 100 2.57  42 2.60 122 2.63  13 2.64

  15  0.004  0.002  0.602-  14 2.55  19 2.56  16 2.59  33 2.59  43 2.61  38 2.62 101 2.63 116 2.64

  16  0.004  0.004  0.801-  20 2.55  15 2.59  40 2.59  39 2.62 117 2.67 102 2.69  34 2.70  12 2.72
                           124 3.02
  17  1.000  0.206  0.996-   1 2.54  20 2.55 102 2.59  45 2.61   7 2.62  40 2.64  12 2.64 103 2.66
                            10 2.93
  18  0.029  0.195  0.400-  14 2.52 118 2.56   7 2.63   6 2.72  13 2.74  19 2.74  42 2.83  22 2.84
                           105 2.88
  19  0.002  0.197  0.600-  15 2.56 106 2.57 100 2.58  20 2.60  42 2.60  47 2.61  23 2.62  18 2.74
                           118 3.02
  20  0.004  0.198  0.800-  17 2.55  16 2.55  24 2.59  19 2.60 101 2.61  44 2.61  43 2.62  10 2.67
                            47 2.91
  21  0.001  0.407  0.196-   1 2.51  26 2.54 108 2.59  50 2.60   7 2.61  45 2.61  22 2.63 103 2.64

  22  0.003  0.401  0.396-  46 2.58 109 2.61  51 2.62  27 2.62  21 2.63  23 2.63 104 2.65  18 2.84
                             7 2.95 118 3.03
  23  0.995  0.391  0.591- 105 2.50 118 2.57 110 2.58  19 2.62  22 2.63  28 2.67  24 2.73 123 2.79

  24  0.000  0.396  0.804-   1 2.58  20 2.59 111 2.60 106 2.62  29 2.66  47 2.67  48 2.69  23 2.73
                            10 2.93 123 3.10
  25  1.000  0.596  0.001-   1 2.55  26 2.59  48 2.62 111 2.62 112 2.65  52 2.67  29 2.68  30 2.69
                            11 3.04
  26  0.998  0.601  0.200-  21 2.54  27 2.58  31 2.58 113 2.58  25 2.59 107 2.61  49 2.63  53 2.66
                             1 3.00
  27  0.002  0.602  0.399-  26 2.58  50 2.58  28 2.60  32 2.61  22 2.62 121 2.62  54 2.64 108 2.65

  28  0.001  0.599  0.596-  27 2.60 109 2.60 114 2.63  29 2.64  33 2.64  51 2.65  55 2.66  23 2.67
                           121 3.01 123 3.10
  29  0.988  0.590  0.791- 110 2.49  11 2.59  34 2.61  28 2.64  24 2.66  25 2.68 123 2.72   8 2.78

  30  0.000  0.805  0.011-  36 2.51  31 2.52 115 2.57   8 2.66  12 2.68  25 2.69  11 2.79  34 2.81
                           124 3.07
  31  0.002  0.801  0.204-  30 2.52  32 2.57  52 2.57  26 2.58  13 2.62 122 2.63 112 2.67  37 2.68

  32  0.006  0.803  0.402-  14 2.54  53 2.55  31 2.57  33 2.61  27 2.61  38 2.62 116 2.68 113 2.70
                           122 3.05 121 3.06
  33  0.003  0.803  0.600-  34 2.58  15 2.59  32 2.61  54 2.61 117 2.61  39 2.62  28 2.64 121 2.65
                            55 2.92
  34  0.013  0.800  0.800-  55 2.44  33 2.58  29 2.61  35 2.63  16 2.70 124 2.74 114 2.77  30 2.81
                             8 2.94
  35  0.203  0.008  0.003-  40 2.54  61 2.57  12 2.59  36 2.60  39 2.62  34 2.63  56 2.64   8 2.67

  36  0.200  0.996  0.197-  30 2.51  52 2.57  62 2.57  35 2.60  41 2.60  57 2.61  37 2.64  13 2.65
                             8 2.91
  37  0.202  0.015  0.405-  14 2.55  63 2.61  38 2.63  36 2.64  58 2.66  31 2.68  53 2.73  62 2.81
                            42 2.85  13 2.92
  38  0.205  0.004  0.603-  42 2.54   3 2.56  54 2.58  59 2.58  39 2.60  32 2.62  15 2.62  37 2.63
                            63 2.90   2 2.97
  39  0.204  0.002  0.801-  55 2.48  43 2.56   2 2.58  60 2.59  38 2.60  35 2.62  16 2.62  33 2.62
                             3 2.96
  40  0.202  0.201  0.001-  35 2.54  65 2.56  16 2.59  44 2.59  43 2.60  17 2.64  60 2.64  41 2.72

  41  0.203  0.200  0.210-  12 2.50 119 2.55  36 2.60  61 2.65   7 2.67  45 2.69  40 2.72  62 2.91

  42  0.202  0.196  0.601-  38 2.54  66 2.60  19 2.60  14 2.60  43 2.61  63 2.64 118 2.69  18 2.83
                            37 2.85   9 2.87   3 3.02
  43  0.206  0.199  0.803-  47 2.51  39 2.56   3 2.57  40 2.60  15 2.61  42 2.61  64 2.61  20 2.62

  44  0.200  0.399  0.003-  48 2.52  47 2.56  45 2.57  40 2.59   1 2.60  20 2.61  68 2.62  64 2.63

  45  0.199  0.400  0.200-  44 2.57  46 2.60  17 2.61  21 2.61  49 2.61  65 2.63  69 2.63  41 2.69
                             7 2.97   1 2.98 119 2.99
  46  0.206  0.410  0.404-   4 2.51  22 2.58  50 2.60  45 2.60 119 2.65 118 2.66   7 2.72  51 2.89
                             9 2.93
  47  0.202  0.390  0.804-  43 2.51  44 2.56  66 2.58  19 2.61  24 2.67  67 2.67 118 2.68 123 2.78
                            20 2.91
  48  0.205  0.598  0.015-  49 2.42  44 2.52  72 2.59  25 2.62  67 2.64  24 2.69 123 2.75   8 2.76
                            68 2.87   1 2.92
  49  0.198  0.600  0.198-  48 2.42   1 2.55  50 2.56  45 2.61  52 2.62  26 2.63  68 2.63  73 2.64

  50  0.200  0.604  0.397-  51 2.53  49 2.56  27 2.58  69 2.59  46 2.60  21 2.60  53 2.60  74 2.61
                             4 3.01
  51  0.204  0.605  0.592-   4 2.52  50 2.53  54 2.60  22 2.62  28 2.65  75 2.67 118 2.68 123 2.81
                            46 2.89
  52  0.201  0.803  0.207-  53 2.54  31 2.57  36 2.57  58 2.58  49 2.62  72 2.66   8 2.66  25 2.67

  53  0.201  0.805  0.402-  52 2.54  32 2.55  59 2.58  54 2.58  50 2.60  73 2.62  26 2.66  37 2.73

  54  0.204  0.806  0.601-  55 2.54  38 2.58  53 2.58  51 2.60   2 2.60  74 2.60  33 2.61  27 2.64

  55  0.201  0.809  0.795-  34 2.44  39 2.48  54 2.54  75 2.61  56 2.62  28 2.66 123 2.76   8 2.76
                            33 2.92   2 2.95
  56  0.403  0.003  0.000-  82 2.58  60 2.58  71 2.60  76 2.60   2 2.61  55 2.62  35 2.64  57 2.65

  57  0.405  0.005  0.204- 120 2.56  61 2.59  36 2.61  72 2.62  58 2.63   8 2.64  56 2.65  77 2.69

  58  0.400  0.001  0.402-  62 2.55  52 2.58  73 2.58  83 2.59  59 2.62  57 2.63  37 2.66  78 2.67
                           120 3.06
  59  0.400  0.999  0.602-  63 2.49  74 2.56   2 2.56  38 2.58  53 2.58  79 2.60  84 2.60  58 2.62
                             3 3.00
  60  0.403  0.201  0.999-   3 2.55  81 2.56  86 2.58  56 2.58  64 2.59  39 2.59  61 2.63  40 2.64
                             2 2.97
  61  0.403  0.201  0.201-   5 2.56  35 2.57  57 2.59  65 2.61  82 2.63  60 2.63  41 2.65  62 2.69
                           119 2.98 120 3.01
  62  0.391  0.192  0.399-  58 2.55  87 2.56  36 2.57  61 2.69 119 2.71  63 2.72 120 2.72  37 2.81
                             9 2.86  41 2.91
  63  0.408  0.195  0.614-   3 2.49  59 2.49  88 2.52  83 2.59  37 2.61  42 2.64   9 2.67  62 2.72
                            84 2.80  38 2.90
  64  0.402  0.400  0.004-  65 2.54  90 2.55  60 2.59  67 2.60  85 2.60  66 2.60  43 2.61  44 2.63
                             3 3.05
  65  0.398  0.398  0.196-  64 2.54  40 2.56 119 2.56  86 2.60  61 2.61  68 2.62  45 2.63  91 2.64
                             5 3.05
  66  0.400  0.393  0.802-   3 2.57  47 2.58  88 2.58  89 2.58  42 2.60  64 2.60  70 2.70   9 2.74
                           118 3.10
  67  0.405  0.600  0.006-  89 2.55  68 2.57  95 2.57  64 2.60  48 2.64  47 2.67  71 2.72  70 2.76
                            90 2.91 123 3.03
  68  0.402  0.601  0.202-  67 2.57  90 2.58  69 2.59  96 2.60  65 2.62  44 2.62  49 2.63  72 2.64
                            48 2.87
  69  0.399  0.605  0.400-   4 2.57  97 2.59  50 2.59  68 2.59  73 2.60  45 2.63  91 2.64 119 2.65

  70  0.409  0.599  0.796-  93 2.37   4 2.59  94 2.61 118 2.63  66 2.70 123 2.73  67 2.76  75 2.76
                            98 2.88
  71  0.420  0.816  0.016-  77 2.43  94 2.52  72 2.58  56 2.60  75 2.72  67 2.72   8 2.76 123 2.76
                            95 2.88  76 2.89
  72  0.403  0.804  0.204-  78 2.58  73 2.58  71 2.58  48 2.59  95 2.59  57 2.62  68 2.64  52 2.66
                             8 3.03
  73  0.400  0.803  0.400-  79 2.56  72 2.58  58 2.58  69 2.60  74 2.60  96 2.61  53 2.62  49 2.64

  74  0.401  0.802  0.598-  59 2.56   4 2.58  80 2.59  97 2.59  54 2.60  73 2.60  75 2.60  50 2.61
                            98 2.90   2 3.04
  75  0.402  0.809  0.800-  98 2.51   2 2.55  76 2.56  74 2.60  55 2.61  51 2.67  71 2.72  70 2.76
                            80 2.91 123 3.08
  76  0.600  0.000  0.998-  99 2.55  75 2.56 104 2.58  81 2.59  80 2.59  56 2.60  94 2.61  77 2.62
                            71 2.89   2 3.02
  77  0.608  0.001  0.201-  71 2.43   6 2.58 105 2.58  95 2.60  76 2.62  78 2.63  82 2.64  57 2.69
                           120 3.04
  78  0.603  0.999  0.400-  96 2.57  72 2.58  79 2.60 106 2.60 100 2.63  77 2.63 120 2.64  58 2.67

  79  0.597  0.998  0.596-  97 2.55  73 2.56  83 2.57  78 2.60  59 2.60 101 2.64  80 2.64  10 2.69

  80  0.596  0.000  0.799-   2 2.55  76 2.59  74 2.59  98 2.59  84 2.61 102 2.62 103 2.63  79 2.64
                            75 2.91
  81  0.598  0.197  0.998-   2 2.55  60 2.56  82 2.57 103 2.57  84 2.57  76 2.59  85 2.59 108 2.61
                             3 2.96
  82  0.602  0.199  0.197- 104 2.56  81 2.57  56 2.58  86 2.59 109 2.61  61 2.63 120 2.64  77 2.64
                             5 3.02
  83  0.601  0.197  0.600-  79 2.57  63 2.59  58 2.59  87 2.60 111 2.60 120 2.65  84 2.65 106 2.68
                            10 3.00
  84  0.596  0.201  0.802-   3 2.52  81 2.57  88 2.58  59 2.60  80 2.61 107 2.62  83 2.65  10 2.69
                            63 2.80   2 2.93
  85  0.597  0.394  0.998-   3 2.56  81 2.59  64 2.60  89 2.61  88 2.62 113 2.62  86 2.62 107 2.64

  86  0.598  0.397  0.200-  60 2.58   5 2.58  82 2.59  65 2.60 121 2.62  85 2.62  90 2.64 108 2.64

  87  0.592  0.389  0.589-  62 2.56   5 2.57  83 2.60  11 2.64 110 2.66  92 2.67  88 2.68   9 2.69
                           120 2.93 119 3.00
  88  0.598  0.398  0.799-  63 2.52  66 2.58  84 2.58 112 2.61  93 2.62  85 2.62 111 2.63  87 2.68
                            11 2.90   3 3.03
  89  0.596  0.594  0.999-  67 2.55  66 2.58  90 2.58  93 2.59 112 2.61  85 2.61 122 2.66  94 2.68

  90  0.596  0.597  0.198-  64 2.55  68 2.58  89 2.58  91 2.60  95 2.62  86 2.64 113 2.64 116 2.66
                            67 2.91 121 3.04 122 3.05
  91  0.600  0.600  0.399-  90 2.60 117 2.61  96 2.62  92 2.63 121 2.63  69 2.64  65 2.64   5 2.66
                           119 2.96
  92  0.587  0.592  0.593- 119 2.50   4 2.53  91 2.63  93 2.67  87 2.67  97 2.69 114 2.73 124 2.76
                             5 3.05
  93  0.590  0.595  0.799-  70 2.37  89 2.59  88 2.62  11 2.67  92 2.67 115 2.69  98 2.69   9 2.80
                             4 3.04 124 3.19
  94  0.602  0.802  1.000-  71 2.52 115 2.57  70 2.61  76 2.61   6 2.62  98 2.64  95 2.65  89 2.68
                           122 3.01
  95  0.600  0.800  0.202-  67 2.57  72 2.59  96 2.59  77 2.60 122 2.62  90 2.62 100 2.64  94 2.65
                            71 2.88
  96  0.600  0.801  0.400-  97 2.56  78 2.57  95 2.59  68 2.60  73 2.61 116 2.61 101 2.62  91 2.62

  97  0.599  0.803  0.596-  79 2.55  96 2.56  69 2.59  74 2.59  98 2.64 102 2.65 117 2.65  92 2.69
                             4 3.02 124 3.07
  98  0.587  0.797  0.792-  75 2.51   4 2.52  80 2.59  97 2.64  94 2.64  99 2.69  93 2.69 124 2.78
                            70 2.88  74 2.90
  99  0.795  0.997  0.001-   6 2.53  76 2.55 103 2.63   7 2.63 115 2.64 102 2.68  98 2.69  12 2.69
                           124 3.06
 100  0.805  0.002  0.399- 105 2.56  14 2.57  19 2.58   6 2.61 116 2.62  78 2.63 101 2.63  95 2.64
                           122 2.99
 101  0.801  0.001  0.599- 117 2.54 106 2.58  20 2.61  96 2.62 102 2.62  15 2.63 100 2.63  79 2.64

 102  0.799  0.007  0.801-  10 2.56  17 2.59  80 2.62 101 2.62  97 2.65 124 2.68  99 2.68  16 2.69

 103  0.797  0.199  0.003- 104 2.56  81 2.57 107 2.60  99 2.63  80 2.63  21 2.64  17 2.66  10 2.67
                             7 2.91
 104  0.797  0.197  0.198- 105 2.54  82 2.56 103 2.56   7 2.58  76 2.58   6 2.60 108 2.62  22 2.65

 105  0.808  0.198  0.397-  23 2.50 104 2.54 100 2.56  77 2.58 106 2.61 109 2.64 120 2.71  18 2.88
                             6 2.95
 106  0.805  0.198  0.595-  19 2.57 101 2.58  78 2.60 110 2.61 105 2.61  24 2.62  83 2.68  10 2.69
                           120 3.03
 107  0.801  0.399  0.000- 112 2.55 108 2.58   1 2.60 103 2.60  26 2.61  84 2.62 111 2.63  85 2.64
                            10 2.97
 108  0.800  0.397  0.197- 107 2.58  21 2.59 113 2.60 109 2.60  81 2.61 104 2.62  86 2.64  27 2.65
                           121 3.03
 109  0.802  0.398  0.397- 108 2.60  28 2.60  82 2.61  22 2.61 110 2.62 121 2.63 105 2.64   5 2.64
                           120 3.02
 110  0.802  0.397  0.597-  29 2.49  23 2.58 120 2.59 114 2.60 106 2.61 109 2.62 111 2.64  87 2.66
                             5 3.03  11 3.03
 111  0.799  0.397  0.798-  11 2.54  10 2.55  83 2.60  24 2.60  25 2.62 107 2.63  88 2.63 110 2.64
                             1 3.04
 112  0.797  0.593  0.003- 113 2.53 107 2.55  88 2.61  89 2.61  11 2.64  25 2.65 115 2.66  31 2.67
                           122 3.02
 113  0.798  0.595  0.198- 112 2.53 121 2.58  26 2.58 108 2.60  85 2.62  90 2.64 122 2.66  32 2.70

 114  0.795  0.592  0.590-   5 2.54 121 2.57 110 2.60  28 2.63  92 2.73  11 2.75 117 2.75  34 2.77
                           124 3.10
 115  0.799  0.798  0.005- 122 2.54  94 2.57  30 2.57  99 2.64  13 2.65 112 2.66  93 2.69 124 2.74
                             6 2.95
 116  0.800  0.801  0.401- 117 2.48  96 2.61 100 2.62 122 2.62 121 2.64  15 2.64  90 2.66  32 2.68

 117  0.801  0.805  0.592- 116 2.48 101 2.54  91 2.61  33 2.61  97 2.65  16 2.67 124 2.70 114 2.75
                           121 3.02
 118  0.199  0.402  0.602-  18 2.56  23 2.57   9 2.58  70 2.63  46 2.66  51 2.68  47 2.68  42 2.69
                            19 3.02 123 3.03  22 3.03   4 3.08  66 3.10
 119  0.402  0.401  0.394-  92 2.50  41 2.55  65 2.56   5 2.59  46 2.65  69 2.65   9 2.67  62 2.71
                            91 2.96  61 2.98  45 2.99  87 3.00   4 3.08
 120  0.602  0.200  0.399-  57 2.56   5 2.59 110 2.59  82 2.64  78 2.64  83 2.65 105 2.71  62 2.72
                            87 2.93  61 3.01 109 3.02 106 3.03  77 3.04  58 3.06
 121  0.800  0.599  0.398- 114 2.57 113 2.58  86 2.62  27 2.62 109 2.63  91 2.63 116 2.64  33 2.65
                            28 3.01 117 3.02 108 3.03  90 3.04   5 3.04  32 3.06
 122  0.800  0.800  0.200- 115 2.54   6 2.61 116 2.62  95 2.62  14 2.63  31 2.63  89 2.66 113 2.66
                           100 2.99  94 3.01  13 3.02 112 3.02  90 3.05  32 3.05
 123  0.206  0.605  0.807-  29 2.72  70 2.73  48 2.75  55 2.76  71 2.76  47 2.78  23 2.79  51 2.81
                             8 3.02 118 3.03  67 3.03  75 3.08  28 3.10  24 3.10
 124  0.804  0.803  0.799- 102 2.68 117 2.70 115 2.74  34 2.74  92 2.76  11 2.76  12 2.76  98 2.78
                            16 3.02  99 3.06  30 3.07  97 3.07 114 3.10  93 3.19
 
  LATTYP: Found a triclinic cell.
 ALAT       =    36.9484934985
 B/A-ratio  =     0.3535186554
 C/A-ratio  =     0.5772698908
 COS(alpha) =     0.0002416466
 COS(beta)  =     0.2887267664
 COS(gamma) =     0.9428158987
  
  Lattice vectors:
  
 A1 = (  30.1710571640, -15.0866049150, -15.0762340640)
 A2 = (   7.5429280460,  -7.5406991980,  -7.5403885230)
 A3 = (  15.0799980970,  15.0841177710,  -0.0085907380)


Analysis of symmetry for initial positions (statically):
=====================================================================
 Subroutine PRICEL returns:
 Original cell was already a primitive cell.
 

 Routine SETGRP: Setting up the symmetry group for a 
 triclinic supercell.


 Subroutine GETGRP returns: Found  1 space group operations
 (whereof  1 operations were pure point group operations)
 out of a pool of  2 trial point group operations.


The static configuration has the point symmetry C_1 .


Analysis of symmetry for dynamics (positions and initial velocities):
=====================================================================
 Subroutine PRICEL returns:
 Original cell was already a primitive cell.
 

 Routine SETGRP: Setting up the symmetry group for a 
 triclinic supercell.


 Subroutine GETGRP returns: Found  1 space group operations
 (whereof  1 operations were pure point group operations)
 out of a pool of  2 trial point group operations.


The dynamic configuration has the point symmetry C_1 .


 Subroutine INISYM returns: Found  1 space group operations
 (whereof  1 operations are pure point group operations),
 and found     1 'primitive' translations


----------------------------------------------------------------------------------------

                                     Primitive cell                                     

  volume of cell :    1718.3948

  direct lattice vectors                    reciprocal lattice vectors
    -7.542928046  7.540699198  7.540388523     0.000002930  0.066329719  0.066289639
     7.547476001 -7.553831611  7.558065225     0.066270222  0.000080482  0.066212056
     7.537725071  7.548625092 -7.553522243     0.066313004  0.066294918  0.000037688

  length of vectors
    13.061981740 13.082397179 13.071141431     0.093776052  0.093679160  0.093767969

  position of ions in fractional coordinates (direct lattice)
     0.002882530  0.403818434  0.004347833
     0.402193904  0.004459149  0.800553788
     0.401785000  0.197222794  0.802466392
     0.398303769  0.603351156  0.595946158
     0.599600407  0.396714000  0.397348445
     0.804561998  0.000821133  0.198798148
     0.996294502  0.205119088  0.194637816
     0.200753920  0.803481402  0.003901147
     0.380506407  0.378021059  0.582154103
     0.802732956  0.204091094  0.802541116
     0.791304290  0.587651481  0.797872809
     0.010832112  0.014353402  0.014458459
     0.002283993  0.001938510  0.204874431
     0.001171809  0.996553754  0.404556188
     0.003688132  0.002175774  0.602441409
     0.004370762  0.004246689  0.801246597
     0.999662272  0.205678492  0.995512178
     0.028998817  0.194829925  0.399933903
     0.002357644  0.196623488  0.599994354
     0.003872171  0.198388355  0.799740784
     0.000783754  0.406742441  0.196409788
     0.002694911  0.400864987  0.396003916
     0.995114485  0.391454317  0.591384649
     0.000063550  0.396006563  0.803516879
     0.999710452  0.596276967  0.001108811
     0.998174335  0.601001523  0.199934675
     0.002415936  0.601728472  0.398685545
     0.000833705  0.598744191  0.595862959
     0.987963391  0.590275295  0.790575152
     0.000261035  0.805250901  0.011395629
     0.002130241  0.800943316  0.203635419
     0.005867413  0.803436594  0.401951389
     0.002632423  0.802679227  0.599946792
     0.012952551  0.800439994  0.799917543
     0.203285779  0.008382246  0.003298768
     0.199968810  0.995734156  0.196587257
     0.201853314  0.015181547  0.404684786
     0.205305269  0.004134325  0.603262802
     0.204279411  0.001965960  0.801290416
     0.201948609  0.201371542  0.001473514
     0.203119390  0.199694132  0.209665152
     0.201703143  0.196396789  0.601218830
     0.205511712  0.198528560  0.802640115
     0.199845799  0.399269206  0.002528314
     0.199479118  0.400455670  0.199595642
     0.205981277  0.410318060  0.404077650
     0.202445469  0.389999958  0.804341658
     0.205194229  0.597912251  0.015006774
     0.198394411  0.599605748  0.198486249
     0.200054191  0.604311778  0.396807485
     0.204170117  0.604545248  0.591540513
     0.200862445  0.803114672  0.207106553
     0.201460953  0.805335309  0.402229655
     0.203572846  0.805809952  0.600643300
     0.200644467  0.809246544  0.794919933
     0.402642433  0.003362528  0.000017817
     0.404960778  0.004970653  0.204213355
     0.399758610  0.001430091  0.402420733
     0.400241616  0.998733057  0.601812866
     0.402961941  0.200742966  0.999407665
     0.403069772  0.201083890  0.200503525
     0.391262951  0.192446733  0.399339477
     0.407611695  0.195414962  0.613630228
     0.402003858  0.399906926  0.003776769
     0.398483537  0.397881646  0.195962370
     0.400301766  0.392766483  0.802278109
     0.404610644  0.599789002  0.005696132
     0.401572824  0.600738340  0.201805809
     0.399405642  0.604572859  0.400448258
     0.408796195  0.599152435  0.795943286
     0.419803543  0.816290772  0.016319633
     0.403202641  0.803642778  0.203528772
     0.400347508  0.803251464  0.399527878
     0.400643847  0.801891738  0.598287816
     0.402075287  0.809396623  0.800332104
     0.600323913  0.000344616  0.998347517
     0.608394475  0.001352896  0.201377045
     0.602841792  0.998965916  0.400065133
     0.597095286  0.997629630  0.596256966
     0.595822486  0.000339900  0.798957337
     0.597725078  0.197127560  0.998314698
     0.602292731  0.199465815  0.196842849
     0.600876010  0.196814546  0.599746131
     0.595677057  0.200527744  0.801876002
     0.596800140  0.394453547  0.997566476
     0.598403654  0.396748012  0.199642411
     0.592437912  0.388741276  0.588894003
     0.598374450  0.397776385  0.798749974
     0.595570153  0.594140253  0.998762020
     0.596049873  0.596933592  0.197586053
     0.599545633  0.600488976  0.398705632
     0.587014359  0.592229889  0.592654436
     0.589887417  0.594732513  0.798779329
     0.601794335  0.801535893  0.999875742
     0.599561589  0.799988475  0.201699597
     0.599772248  0.801319640  0.400307537
     0.598729383  0.803108005  0.596346275
     0.586805996  0.797133177  0.791778929
     0.795058320  0.997173018  0.001207032
     0.804909153  0.002378100  0.399337087
     0.801462657  0.001496997  0.599323611
     0.799028125  0.006718042  0.800808909
     0.796707258  0.198965375  0.002938437
     0.797299708  0.196626616  0.197927047
     0.808395384  0.198451479  0.396530838
     0.804885995  0.198132427  0.595265463
     0.801030716  0.398536523  0.000357165
     0.799538700  0.396889363  0.196755643
     0.802150939  0.398136597  0.397013738
     0.801752020  0.397314480  0.597207546
     0.799468827  0.396796186  0.798300029
     0.796792984  0.593314558  0.003420762
     0.797886115  0.595311862  0.198239594
     0.794962872  0.591524547  0.589953916
     0.798512482  0.797579725  0.004783720
     0.799889919  0.801323294  0.400750060
     0.800841636  0.804566069  0.592015190
     0.198604237  0.401587349  0.601999483
     0.402119039  0.401129574  0.394255444
     0.602137337  0.200161675  0.398887349
     0.800287242  0.598787109  0.397603748
     0.799575818  0.799895881  0.200014976
     0.205922384  0.604618874  0.807256995
     0.803657715  0.802882113  0.798747471

  ion indices of the primitive-cell ions
   primitive index   ion index
                 1           1
                 2           2
                 3           3
                 4           4
                 5           5
                 6           6
                 7           7
                 8           8
                 9           9
                10          10
                11          11
                12          12
                13          13
                14          14
                15          15
                16          16
                17          17
                18          18
                19          19
                20          20
                21          21
                22          22
                23          23
                24          24
                25          25
                26          26
                27          27
                28          28
                29          29
                30          30
                31          31
                32          32
                33          33
                34          34
                35          35
                36          36
                37          37
                38          38
                39          39
                40          40
                41          41
                42          42
                43          43
                44          44
                45          45
                46          46
                47          47
                48          48
                49          49
                50          50
                51          51
                52          52
                53          53
                54          54
                55          55
                56          56
                57          57
                58          58
                59          59
                60          60
                61          61
                62          62
                63          63
                64          64
                65          65
                66          66
                67          67
                68          68
                69          69
                70          70
                71          71
                72          72
                73          73
                74          74
                75          75
                76          76
                77          77
                78          78
                79          79
                80          80
                81          81
                82          82
                83          83
                84          84
                85          85
                86          86
                87          87
                88          88
                89          89
                90          90
                91          91
                92          92
                93          93
                94          94
                95          95
                96          96
                97          97
                98          98
                99          99
               100         100
               101         101
               102         102
               103         103
               104         104
               105         105
               106         106
               107         107
               108         108
               109         109
               110         110
               111         111
               112         112
               113         113
               114         114
               115         115
               116         116
               117         117
               118         118
               119         119
               120         120
               121         121
               122         122
               123         123
               124         124

----------------------------------------------------------------------------------------

 
 
 KPOINTS: KPOINTS generated by db_to_vasp         

Automatic generation of k-mesh.
 Grid dimensions read from file:
 generate k-points for:    4    4    4

 Generating k-lattice:

  Cartesian coordinates                     Fractional coordinates (reciprocal lattice)
     0.000000732  0.016582430  0.016572410     0.250000000 -0.000000000 -0.000000000
     0.016567555  0.000020120  0.016553014    -0.000000000  0.250000000 -0.000000000
     0.016578251  0.016573730  0.000009422     0.000000000 -0.000000000  0.250000000

  Length of vectors
     0.023444013  0.023419790  0.023441992

  Shift w.r.t. Gamma in fractional coordinates (k-lattice)
     0.000000000  0.000000000  0.000000000

 
 Subroutine IBZKPT returns following result:
 ===========================================
 
 Found     36 irreducible k-points:
 
 Following reciprocal coordinates:
            Coordinates               Weight
  0.000000  0.000000  0.000000      1.000000
  0.250000  0.000000  0.000000      2.000000
  0.500000  0.000000  0.000000      1.000000
  0.000000  0.250000  0.000000      2.000000
  0.250000  0.250000  0.000000      2.000000
  0.500000  0.250000  0.000000      2.000000
 -0.250000  0.250000  0.000000      2.000000
  0.000000  0.500000  0.000000      1.000000
  0.250000  0.500000  0.000000      2.000000
  0.500000  0.500000  0.000000      1.000000
  0.000000  0.000000  0.250000      2.000000
  0.250000  0.000000  0.250000      2.000000
  0.500000  0.000000  0.250000      2.000000
 -0.250000  0.000000  0.250000      2.000000
  0.000000  0.250000  0.250000      2.000000
  0.250000  0.250000  0.250000      2.000000
  0.500000  0.250000  0.250000      2.000000
 -0.250000  0.250000  0.250000      2.000000
  0.000000  0.500000  0.250000      2.000000
  0.250000  0.500000  0.250000      2.000000
  0.500000  0.500000  0.250000      2.000000
 -0.250000  0.500000  0.250000      2.000000
  0.000000 -0.250000  0.250000      2.000000
  0.250000 -0.250000  0.250000      2.000000
  0.500000 -0.250000  0.250000      2.000000
 -0.250000 -0.250000  0.250000      2.000000
  0.000000  0.000000  0.500000      1.000000
  0.250000  0.000000  0.500000      2.000000
  0.500000  0.000000  0.500000      1.000000
  0.000000  0.250000  0.500000      2.000000
  0.250000  0.250000  0.500000      2.000000
  0.500000  0.250000  0.500000      2.000000
 -0.250000  0.250000  0.500000      2.000000
  0.000000  0.500000  0.500000      1.000000
  0.250000  0.500000  0.500000      2.000000
  0.500000  0.500000  0.500000      1.000000
 
 Following cartesian coordinates:
            Coordinates               Weight
  0.000000  0.000000  0.000000      1.000000
  0.000001  0.016582  0.016572      2.000000
  0.000001  0.033165  0.033145      1.000000
  0.016568  0.000020  0.016553      2.000000
  0.016568  0.016603  0.033125      2.000000
  0.016569  0.033185  0.049698      2.000000
  0.016567 -0.016562 -0.000019      2.000000
  0.033135  0.000040  0.033106      1.000000
  0.033136  0.016623  0.049678      2.000000
  0.033137  0.033205  0.066251      1.000000
  0.016578  0.016574  0.000009      2.000000
  0.016579  0.033156  0.016582      2.000000
  0.016580  0.049739  0.033154      2.000000
  0.016578 -0.000009 -0.016563      2.000000
  0.033146  0.016594  0.016562      2.000000
  0.033147  0.033176  0.033135      2.000000
  0.033147  0.049759  0.049707      2.000000
  0.033145  0.000011 -0.000010      2.000000
  0.049713  0.016614  0.033115      2.000000
  0.049714  0.033196  0.049688      2.000000
  0.049715  0.049779  0.066260      2.000000
  0.049713  0.000032  0.016543      2.000000
  0.000011  0.016554 -0.016544      2.000000
  0.000011  0.033136  0.000029      2.000000
  0.000012  0.049718  0.016601      2.000000
  0.000010 -0.000029 -0.033116      2.000000
  0.033157  0.033147  0.000019      1.000000
  0.033157  0.049730  0.016591      2.000000
  0.033158  0.066312  0.033164      1.000000
  0.049724  0.033168  0.016572      2.000000
  0.049725  0.049750  0.033144      2.000000
  0.049726  0.066332  0.049717      2.000000
  0.049723  0.016585 -0.000001      2.000000
  0.066292  0.033188  0.033125      1.000000
  0.066292  0.049770  0.049697      2.000000
  0.066293  0.066353  0.066270      1.000000
 


--------------------------------------------------------------------------------------------------------




 Dimension of arrays:
   k-points           NKPTS =     36   k-points in BZ     NKDIM =     36   number of bands    NBANDS=    832
   number of dos      NEDOS =    301   number of ions     NIONS =    124
   non local maximal  LDIM  =      6   non local SUM 2l+1 LMDIM =     18
   total plane-waves  NPLWV = 941192
   max r-space proj   IRMAX =      1   max aug-charges    IRDMAX=  31460
   dimension x,y,z NGX =    98 NGY =   98 NGZ =   98
   dimension x,y,z NGXF=   196 NGYF=  196 NGZF=  196
   support grid    NGXF=   196 NGYF=  196 NGZF=  196
   ions per type =               6   5 106   5   2
   NGX,Y,Z   is equivalent  to a cutoff of  12.47, 12.45, 12.46 a.u.
   NGXF,Y,Z  is equivalent  to a cutoff of  24.95, 24.91, 24.93 a.u.

 SYSTEM =  unknown system                          
 POSCAR =  Cr Ti V  W  Zr                          

 Startparameter for this run:
   NWRITE =      2    write-flag & timer
   PREC   = accura    normal or accurate (medium, high low for compatibility)
   ISTART =      0    job   : 0-new  1-cont  2-samecut
   ICHARG =      2    charge: 1-file 2-atom 10-const
   ISPIN  =      1    spin polarized calculation?
   LNONCOLLINEAR =      F non collinear calculations
   LSORBIT =      F    spin-orbit coupling
   INIWAV =      1    electr: 0-lowe 1-rand  2-diag
   LASPH  =      F    aspherical Exc in radial PAW
 Electronic Relaxation 1
   ENCUT  =  520.0 eV  38.22 Ry    6.18 a.u.  24.29 24.32 24.30*2*pi/ulx,y,z
   ENINI  =  520.0     initial cutoff
   ENAUG  =  598.5 eV  augmentation charge cutoff
   NELM   =    100;   NELMIN=  2; NELMDL= -5     # of ELM steps 
   EDIFF  = 0.1E-05   stopping-criterion for ELM
   LREAL  =      F    real-space projection
   NLSPLINE    = F    spline interpolate recip. space projectors
   LCOMPAT=      F    compatible to vasp.4.4
   GGA_COMPAT  = T    GGA compatible to vasp.4.4-vasp.4.6
   LMAXPAW     = -100 max onsite density
   LMAXMIX     =    2 max onsite mixed and CHGCAR
   VOSKOWN=      0    Vosko Wilk Nusair interpolation
   ROPT   =    0.00000   0.00000   0.00000   0.00000
   ROPT   =    0.00000
 Ionic relaxation
   EDIFFG = -.1E-01   stopping-criterion for IOM
   NSW    =     -1    number of steps for IOM
   NBLOCK =      1;   KBLOCK =      1    inner block; outer block 
   IBRION =      2    ionic relax: 0-MD 1-quasi-New 2-CG
   NFREE  =      1    steps in history (QN), initial steepest desc. (CG)
   ISIF   =      2    stress and relaxation
   IWAVPR =     11    prediction:  0-non 1-charg 2-wave 3-comb
   ISYM   =      2    0-nonsym 1-usesym 2-fastsym
   LCORR  =      T    Harris-Foulkes like correction to forces

   POTIM  = 0.2000    time-step for ionic-motion
   TEIN   =    0.0    initial temperature
   TEBEG  =    0.0;   TEEND  =   0.0 temperature during run
   SMASS  =  -3.00    Nose mass-parameter (am)
   estimated Nose-frequenzy (Omega)   =  0.10E-29 period in steps = 0.31E+47 mass=  -0.390E-26a.u.
   SCALEE = 1.0000    scale energy and forces
   NPACO  =    256;   APACO  = 10.0  distance and # of slots for P.C.
   PSTRESS=    0.0 pullay stress

  Mass of Ions in am
   POMASS =  52.00 47.88 50.94183.85 91.22
  Ionic Valenz
   ZVAL   =  12.00 10.00 11.00 14.00 12.00
  Atomic Wigner-Seitz radii
   RWIGS  =  -1.00 -1.00 -1.00 -1.00 -1.00
  virtual crystal weights 
   VCA    =   1.00  1.00  1.00  1.00  1.00
   NELECT =    1382.0000    total number of electrons
   NUPDOWN=      -1.0000    fix difference up-down

 DOS related values:
   EMIN   =  10.00;   EMAX   =-10.00  energy-range for DOS
   EFERMI =   0.00;   METHOD = LEGACY      
   ISMEAR =     1;   SIGMA  =   0.20  broadening in eV -4-tet -1-fermi 0-gaus

 Electronic relaxation 2 (details)
   IALGO  =     38    algorithm
   LDIAG  =      T    sub-space diagonalisation (order eigenvalues)
   LSUBROT=      F    optimize rotation matrix (better conditioning)
   TURBO    =      0    0=normal 1=particle mesh
   IRESTART =      0    0=no restart 2=restart with 2 vectors
   NREBOOT  =      0    no. of reboots
   NMIN     =      0    reboot dimension
   EREF     =   0.00    reference energy to select bands
   IMIX   =      4    mixing-type and parameters
     AMIX     =   0.40;   BMIX     =  1.00
     AMIX_MAG =   1.60;   BMIX_MAG =  1.00
     AMIN     =   0.10
     WC   =   100.;   INIMIX=   1;  MIXPRE=   1;  MAXMIX= -45

 Intra band minimization:
   WEIMIN = 0.0010     energy-eigenvalue tresh-hold
   EBREAK =  0.30E-09  absolut break condition
   DEPER  =   0.30     relativ break condition  

   TIME   =   0.40     timestep for ELM

  volume/ion in A,a.u.               =      13.86        93.52
  Fermi-wavevector in a.u.,A,eV,Ry     =   1.522427  2.876970 31.535373  2.317785
  Thomas-Fermi vector in A             =   2.631008
 
 Write flags
   LWAVE        =      F    write WAVECAR
   LDOWNSAMPLE  =      F    k-point downsampling of WAVECAR
   LCHARG       =      T    write CHGCAR
   LVTOT        =      F    write LOCPOT, total local potential
   LVHAR        =      F    write LOCPOT, Hartree potential only
   LELF         =      F    write electronic localiz. function (ELF)
   LORBIT       =     11    0 simple, 1 ext, 2 COOP (PROOUT), +10 PAW based schemes


 Dipole corrections
   LMONO  =      F    monopole corrections only (constant potential shift)
   LDIPOL =      F    correct potential (dipole corrections)
   IDIPOL =      0    1-x, 2-y, 3-z, 4-all directions 
   EPSILON=  1.0000000 bulk dielectric constant

 Exchange correlation treatment:
   GGA     =    PE    GGA type
   LEXCH   =     8    internal setting for exchange type
   LIBXC   =     F    Libxc                    
   VOSKOWN =     0    Vosko Wilk Nusair interpolation
   LHFCALC =     F    Hartree Fock is set to
   LHFONE  =     F    Hartree Fock one center treatment
   AEXX    =    0.0000 exact exchange contribution

 Linear response parameters
   LEPSILON=     F    determine dielectric tensor
   LRPA    =     F    only Hartree local field effects (RPA)
   LNABLA  =     F    use nabla operator in PAW spheres
   LVEL    =     F    velocity operator in full k-point grid
   CSHIFT  =0.1000    complex shift for real part using Kramers Kronig
   OMEGAMAX=  -1.0    maximum frequency
   DEG_THRESHOLD= 0.2000000E-02 threshold for treating states as degnerate
   RTIME   =   -0.100 relaxation time in fs
  (WPLASMAI=    0.000 imaginary part of plasma frequency in eV, 0.658/RTIME)
   DFIELD  = 0.0000000 0.0000000 0.0000000 field for delta impulse in time
 
  Optional k-point grid parameters
   LKPOINTS_OPT  =     F    use optional k-point grid
   KPOINTS_OPT_MODE=     1    mode for optional k-point grid
 
 Orbital magnetization related:
   ORBITALMAG=     F  switch on orbital magnetization
   LCHIMAG   =     F  perturbation theory with respect to B field
   DQ        =  0.001000  dq finite difference perturbation B field
   LLRAUG    =     F  two centre corrections for induced B field
   LBONE     =     F  B-component reconstruction in AE one-centre
   LVGVCALC  =     T  calculate vGv susceptibility
   LVGVAPPL  =     F  apply vGv susceptibility instead of pGv for G=0

 Random number generation:
   RANDOM_GENERATOR = DEFAULT
   PCG_SEED         = not used


--------------------------------------------------------------------------------------------------------


 conjugate gradient relaxation of ions
 charge density and potential will be updated during run
 non-spin polarized calculation
 Variant of blocked Davidson
 Davidson routine will perform the subspace rotation
 perform sub-space diagonalisation
    after iterative eigenvector-optimisation
 modified Broyden-mixing scheme, WC =      100.0
 initial mixing is a Kerker type mixing with AMIX =  0.4000 and BMIX =      1.0000
 Hartree-type preconditioning will be used
 using additional bands           141
 reciprocal scheme for non local part
 use partial core corrections
 calculate Harris-corrections to forces 
   (improved forces if not selfconsistent)
 use gradient corrections 
 use of overlap-Matrix (Vanderbilt PP)
 Methfessel and Paxton  Order N= 1 SIGMA  =   0.20


--------------------------------------------------------------------------------------------------------


  energy-cutoff  :      520.00
  volume of cell :     1718.39
      direct lattice vectors                 reciprocal lattice vectors
    -7.542928046  7.540699198  7.540388523     0.000002930  0.066329719  0.066289639
     7.547476001 -7.553831611  7.558065225     0.066270222  0.000080482  0.066212056
     7.537725071  7.548625092 -7.553522243     0.066313004  0.066294918  0.000037688

  length of vectors
    13.061981740 13.082397179 13.071141431     0.093776052  0.093679160  0.093767969


 
 k-points in units of 2pi/SCALE and weight: KPOINTS generated by db_to_vasp         
   0.00000000  0.00000000  0.00000000       0.016
   0.00000073  0.01658243  0.01657241       0.031
   0.00000146  0.03316486  0.03314482       0.016
   0.01656756  0.00002012  0.01655301       0.031
   0.01656829  0.01660255  0.03312542       0.031
   0.01656902  0.03318498  0.04969783       0.031
   0.01656682 -0.01656231 -0.00001940       0.031
   0.03313511  0.00004024  0.03310603       0.016
   0.03313584  0.01662267  0.04967844       0.031
   0.03313658  0.03320510  0.06625085       0.016
   0.01657825  0.01657373  0.00000942       0.031
   0.01657898  0.03315616  0.01658183       0.031
   0.01657972  0.04973859  0.03315424       0.031
   0.01657752 -0.00000870 -0.01656299       0.031
   0.03314581  0.01659385  0.01656244       0.031
   0.03314654  0.03317628  0.03313485       0.031
   0.03314727  0.04975871  0.04970726       0.031
   0.03314507  0.00001142 -0.00000997       0.031
   0.04971336  0.01661397  0.03311545       0.031
   0.04971409  0.03319640  0.04968786       0.031
   0.04971483  0.04977883  0.06626027       0.031
   0.04971263  0.00003154  0.01654304       0.031
   0.00001070  0.01655361 -0.01654359       0.031
   0.00001143  0.03313604  0.00002882       0.031
   0.00001216  0.04971847  0.01660123       0.031
   0.00000996 -0.00002882 -0.03311600       0.031
   0.03315650  0.03314746  0.00001884       0.016
   0.03315723  0.04972989  0.01659125       0.031
   0.03315797  0.06631232  0.03316366       0.016
   0.04972406  0.03316758  0.01657186       0.031
   0.04972479  0.04975001  0.03314427       0.031
   0.04972552  0.06633244  0.04971668       0.031
   0.04972332  0.01658515 -0.00000055       0.031
   0.06629161  0.03318770  0.03312487       0.016
   0.06629235  0.04977013  0.04969728       0.031
   0.06629308  0.06635256  0.06626969       0.016
 
 k-points in reciprocal lattice and weights: KPOINTS generated by db_to_vasp         
   0.00000000  0.00000000  0.00000000       0.016
   0.25000000  0.00000000  0.00000000       0.031
   0.50000000  0.00000000  0.00000000       0.016
   0.00000000  0.25000000  0.00000000       0.031
   0.25000000  0.25000000  0.00000000       0.031
   0.50000000  0.25000000  0.00000000       0.031
  -0.25000000  0.25000000  0.00000000       0.031
   0.00000000  0.50000000  0.00000000       0.016
   0.25000000  0.50000000  0.00000000       0.031
   0.50000000  0.50000000  0.00000000       0.016
   0.00000000  0.00000000  0.25000000       0.031
   0.25000000  0.00000000  0.25000000       0.031
   0.50000000  0.00000000  0.25000000       0.031
  -0.25000000  0.00000000  0.25000000       0.031
   0.00000000  0.25000000  0.25000000       0.031
   0.25000000  0.25000000  0.25000000       0.031
   0.50000000  0.25000000  0.25000000       0.031
  -0.25000000  0.25000000  0.25000000       0.031
   0.00000000  0.50000000  0.25000000       0.031
   0.25000000  0.50000000  0.25000000       0.031
   0.50000000  0.50000000  0.25000000       0.031
  -0.25000000  0.50000000  0.25000000       0.031
   0.00000000 -0.25000000  0.25000000       0.031
   0.25000000 -0.25000000  0.25000000       0.031
   0.50000000 -0.25000000  0.25000000       0.031
  -0.25000000 -0.25000000  0.25000000       0.031
   0.00000000  0.00000000  0.50000000       0.016
   0.25000000  0.00000000  0.50000000       0.031
   0.50000000  0.00000000  0.50000000       0.016
   0.00000000  0.25000000  0.50000000       0.031
   0.25000000  0.25000000  0.50000000       0.031
   0.50000000  0.25000000  0.50000000       0.031
  -0.25000000  0.25000000  0.50000000       0.031
   0.00000000  0.50000000  0.50000000       0.016
   0.25000000  0.50000000  0.50000000       0.031
   0.50000000  0.50000000  0.50000000       0.016
 
 position of ions in fractional coordinates (direct lattice) 
   0.00288253  0.40381843  0.00434783
   0.40219390  0.00445915  0.80055379
   0.40178500  0.19722279  0.80246639
   0.39830377  0.60335116  0.59594616
   0.59960041  0.39671400  0.39734844
   0.80456200  0.00082113  0.19879815
   0.99629450  0.20511909  0.19463782
   0.20075392  0.80348140  0.00390115
   0.38050641  0.37802106  0.58215410
   0.80273296  0.20409109  0.80254112
   0.79130429  0.58765148  0.79787281
   0.01083211  0.01435340  0.01445846
   0.00228399  0.00193851  0.20487443
   0.00117181  0.99655375  0.40455619
   0.00368813  0.00217577  0.60244141
   0.00437076  0.00424669  0.80124660
   0.99966227  0.20567849  0.99551218
   0.02899882  0.19482993  0.39993390
   0.00235764  0.19662349  0.59999435
   0.00387217  0.19838836  0.79974078
   0.00078375  0.40674244  0.19640979
   0.00269491  0.40086499  0.39600392
   0.99511448  0.39145432  0.59138465
   0.00006355  0.39600656  0.80351688
   0.99971045  0.59627697  0.00110881
   0.99817433  0.60100152  0.19993467
   0.00241594  0.60172847  0.39868554
   0.00083371  0.59874419  0.59586296
   0.98796339  0.59027530  0.79057515
   0.00026103  0.80525090  0.01139563
   0.00213024  0.80094332  0.20363542
   0.00586741  0.80343659  0.40195139
   0.00263242  0.80267923  0.59994679
   0.01295255  0.80043999  0.79991754
   0.20328578  0.00838225  0.00329877
   0.19996881  0.99573416  0.19658726
   0.20185331  0.01518155  0.40468479
   0.20530527  0.00413433  0.60326280
   0.20427941  0.00196596  0.80129042
   0.20194861  0.20137154  0.00147351
   0.20311939  0.19969413  0.20966515
   0.20170314  0.19639679  0.60121883
   0.20551171  0.19852856  0.80264011
   0.19984580  0.39926921  0.00252831
   0.19947912  0.40045567  0.19959564
   0.20598128  0.41031806  0.40407765
   0.20244547  0.38999996  0.80434166
   0.20519423  0.59791225  0.01500677
   0.19839441  0.59960575  0.19848625
   0.20005419  0.60431178  0.39680748
   0.20417012  0.60454525  0.59154051
   0.20086245  0.80311467  0.20710655
   0.20146095  0.80533531  0.40222966
   0.20357285  0.80580995  0.60064330
   0.20064447  0.80924654  0.79491993
   0.40264243  0.00336253  0.00001782
   0.40496078  0.00497065  0.20421336
   0.39975861  0.00143009  0.40242073
   0.40024162  0.99873306  0.60181287
   0.40296194  0.20074297  0.99940766
   0.40306977  0.20108389  0.20050353
   0.39126295  0.19244673  0.39933948
   0.40761169  0.19541496  0.61363023
   0.40200386  0.39990693  0.00377677
   0.39848354  0.39788165  0.19596237
   0.40030177  0.39276648  0.80227811
   0.40461064  0.59978900  0.00569613
   0.40157282  0.60073834  0.20180581
   0.39940564  0.60457286  0.40044826
   0.40879619  0.59915243  0.79594329
   0.41980354  0.81629077  0.01631963
   0.40320264  0.80364278  0.20352877
   0.40034751  0.80325146  0.39952788
   0.40064385  0.80189174  0.59828782
   0.40207529  0.80939662  0.80033210
   0.60032391  0.00034462  0.99834752
   0.60839447  0.00135290  0.20137705
   0.60284179  0.99896592  0.40006513
   0.59709529  0.99762963  0.59625697
   0.59582249  0.00033990  0.79895734
   0.59772508  0.19712756  0.99831470
   0.60229273  0.19946582  0.19684285
[...]
   -.200E+03 -.124E+03 0.246E+02   0.201E+03 0.124E+03 -.249E+02   -.487E+00 -.337E+00 0.337E+00   0.143E-02 0.375E-02 0.421E-03
   0.148E+03 0.704E+02 -.115E+03   -.148E+03 -.700E+02 0.114E+03   0.295E+00 -.359E+00 0.403E+00   0.137E-03 -.374E-02 -.120E-02
   -.438E+02 -.679E+01 -.135E+02   0.438E+02 0.668E+01 0.136E+02   -.580E-01 0.104E+00 -.165E+00   0.454E-03 -.167E-02 0.988E-03
   -.919E+02 -.120E+03 0.848E+02   0.913E+02 0.120E+03 -.843E+02   0.640E+00 0.656E+00 -.505E+00   0.270E-02 0.921E-03 0.804E-03
   0.736E+02 -.154E+02 0.231E+00   -.733E+02 0.153E+02 -.639E+00   -.228E+00 0.146E+00 0.425E+00   0.565E-02 -.146E-02 -.254E-02
   -.459E+02 -.208E+02 0.240E+03   0.455E+02 0.208E+02 -.240E+03   0.465E+00 0.345E-01 -.430E+00   0.247E-02 -.450E-02 0.224E-02
   -.125E+02 -.425E+02 0.498E+02   0.125E+02 0.424E+02 -.497E+02   0.693E-03 -.469E-02 -.826E-01   -.347E-02 0.650E-02 0.474E-02
   -.503E+02 -.536E+02 -.153E+02   0.504E+02 0.536E+02 0.155E+02   -.521E-01 0.817E-01 -.245E+00   -.270E-03 0.489E-03 0.670E-03
   0.389E+02 0.445E+01 -.436E+02   -.389E+02 -.441E+01 0.434E+02   -.588E-01 -.333E-01 0.199E+00   0.645E-04 -.257E-02 -.177E-02
   -.729E+02 0.800E+01 0.218E+02   0.729E+02 -.817E+01 -.218E+02   0.345E-01 0.156E+00 -.104E-01   -.242E-02 -.255E-03 -.124E-02
   0.308E+02 -.856E+02 0.256E+02   -.303E+02 0.853E+02 -.255E+02   -.474E+00 0.262E+00 -.489E-01   0.288E-02 -.750E-03 -.268E-03
 -----------------------------------------------------------------------------------------------
   -.229E+00 -.340E+00 0.511E+00   -.124E-11 -.114E-11 -.183E-11   0.234E+00 0.338E+00 -.512E+00   -.229E-02 0.388E-02 0.117E-02
 
 
 POSITION                                       TOTAL-FORCE (eV/Angst)
 -----------------------------------------------------------------------------------
      3.05884     -2.99582      3.04098        -0.000979      0.005927     -0.000552
      3.03429      9.04222     -2.98060        -0.002833      0.005582     -0.002126
      4.50667      7.59747     -1.54121        -0.002192     -0.002368      0.000153
      6.04148      2.94445      3.06204        -0.018075     -0.006943      0.003077
      1.46655      4.52413      4.51823        -0.000054      0.002950      0.009632
     -4.56407      7.56141      4.57129         0.008825      0.024911      0.017300
     -4.49972      7.43257      7.59255        -0.018695     -0.004999      0.024598
      4.57939     -4.52609      7.55706        -0.006569     -0.004399     -0.002521
      4.37109      4.40824      1.32896        -0.038063     -0.006731     -0.018280
      1.53475     10.56958      1.53344         0.003394      0.005806     -0.001611
      4.48068      7.55081      4.38150        -0.000656      0.007514      0.013946
      0.13561      0.08240      0.08095         0.009605      0.019208     -0.007959
      1.54169      1.54910     -1.51565         0.067580      0.064211      0.043409
     10.56206     -4.46512      4.48503         0.001618      0.000696      0.001500
      4.52964      4.55898     -4.50630        -0.006631     -0.007050      0.007289
      6.03866      6.04919     -5.98718        -0.002553      0.000006      0.005802
      1.51587     13.49924      1.57275        -0.002597     -0.000695      0.004502
      4.26633      1.76591     -1.32971         0.338055     -0.300968     -0.308322
      5.98882      3.06165     -3.02820         0.006427      0.004408     -0.008154
      7.49635      4.56755     -4.51223         0.001115      0.008604     -0.001204
      4.54445     -1.58393      1.59651        -0.004280     -0.001251      0.002276
      5.99016     -0.01846      0.05886        -0.013512      0.005265      0.006746
     -0.09389      9.01102      5.99515        -0.057316     -0.002150     -0.004050
      9.04506      3.07456     -3.07586        -0.002824      0.002193      0.000023
     -3.03200      3.04271     12.03653        -0.002389      0.002302     -0.000265
     -1.48606      4.49630     10.55882         0.001774      0.006228     -0.000815
      7.52849     -1.51761      1.55464         0.003031     -0.002421      0.007591
      9.00417     -0.01858      0.03077        -0.003803     -0.003661      0.001652
      2.96209      8.95885      5.93934        -0.016634     -0.003889      0.004413
      6.16154     -5.99474      6.00203         0.021683     -0.006453     -0.002473
      7.56398     -4.49696      4.53148         0.001973     -0.005201      0.018187
      9.04946     -2.99060      3.08052         0.003368     -0.007209      0.019493
     10.56058     -1.51468      1.55484        -0.000936     -0.006232      0.010293
     11.97316      0.08956      0.10525        -0.001530     -0.008591     -0.000232
     -1.44524      1.49450      1.57129        -0.011537     -0.009309      0.002977
      7.48875     -4.52974      7.54874        -0.025941      0.016935      0.016532
      1.64242      4.46225     -1.42000        -0.005477      0.008389      0.020063
      3.02983      6.07072     -2.97743         0.007302      0.000522      0.014319
      4.51388      7.57420     -4.49736        -0.002097     -0.001781      0.000539
      0.00767      0.01283      3.03362        -0.003038      0.004963      0.002439
      1.55547      1.60589      1.45719        -0.026559      0.021646      0.023554
      4.49269      4.57581     -1.53602        -0.023324     -0.043968      0.021422
      5.99831      6.10888     -3.01263        -0.008689     -0.001084      0.009746
      1.52511     -1.48995      4.50552        -0.003219      0.002524      0.003405
      3.02227     -0.01409      3.02317         0.003409      0.011595      0.004008
      4.58899      1.50400      1.60218        -0.009227      0.026861     -0.023489
      7.47939      4.65226     -1.60145        -0.002334      0.000649      0.005655
      3.07808     -2.85594      5.95295        -0.004743      0.002442      0.002857
      4.52517     -1.53499      4.52856        -0.002718      0.002570     -0.000820
      6.04306     -0.06097      3.07862        -0.005560      0.005619     -0.000947
      7.48162      1.43827      1.64050        -0.004539      0.001883     -0.006243
      6.10751     -2.98858      6.02019        -0.011787      0.003473     -0.004997
      7.59054     -1.52793      4.56762         0.001886     -0.002498      0.001819
      9.07378     -0.01784      3.08841        -0.003911     -0.002922     -0.001644
     10.58621      1.40064      1.62483        -0.004325     -0.004842      0.000896
     -3.01159      3.01094      3.06136        -0.010836      0.000902      0.004023
     -1.47777      4.55767      1.54860        -0.015243     -0.002258      0.000847
      0.02878      6.04138     -0.01455        -0.006714      0.004988     -0.004437
      9.05522      0.01670      6.02066        -0.002384      0.007259     -0.005392
      6.00885      9.06639     -2.99333        -0.007664      0.002920      0.005131
     -0.01131      3.03400      3.04460        -0.010604     -0.008721      0.006629
      1.51133      4.51115      1.38838        -0.018178      0.010641      0.008411
      3.02568      6.22961     -0.08456        -0.016916      0.013764      0.010951
      0.01447      0.03907      6.02526        -0.002350      0.000574      0.004599
      1.47438      1.47856      4.53173        -0.006241     -0.003226      0.007118
      5.99230      6.10776     -0.07304        -0.022496      0.003643     -0.008981
      1.51788     -1.43666      7.54114        -0.005505     -0.002897      0.004595
      3.02618      0.01362      6.04409        -0.002158     -0.001497      0.002648
      4.56878      1.46779      4.55628         0.000191     -0.000546     -0.003716
      7.43817      4.56499      1.59874        -0.016680     -0.006716     -0.007647
      3.11740     -2.87732      9.21179        -0.005288     -0.000553      0.001615
      4.55829     -1.49379      7.57693        -0.006335      0.000544      0.000946
      6.05426     -0.03284      6.07196        -0.003440      0.004889      0.000256
      7.53996      1.48003      4.56258         0.000412      0.001831     -0.002704
      9.10876      2.95929      3.10395        -0.007499      0.003178     -0.005267
      2.99967     12.06041     -3.01176        -0.005611      0.013656      0.005937
     -3.06094      6.09762      3.07665        -0.002666     -0.003841     -0.005024
      6.00806      0.01977      9.07401        -0.000965     -0.001887     -0.008639
      7.52016      1.46751      7.53864        -0.000275      0.004711     -0.002048
      1.53064     10.52138     -1.53964        -0.004884      0.008648     -0.004642
      4.50424     10.55410     -1.54381        -0.002320      0.012978      0.002384
     -1.55384      4.52087      4.56224        -0.003594     -0.004672      0.005356
      1.47381      7.57158      1.48818         0.002041      0.009849      0.001814
      3.06465      9.03013     -0.04975         0.003976      0.012387     -0.004849
      5.99489      9.05091     -0.05373        -0.000305      0.000777      0.003585
     -0.01442      3.02244      6.00284        -0.001846      0.000203      0.006505
      2.90422      5.97625      2.95712         0.010932      0.008501      0.003195
      4.50947      7.53689      1.48502         0.000093      0.006693      0.004182
      7.52031      7.54226      1.43721        -0.003380     -0.002979      0.008660
      1.49873      1.47700      7.51364        -0.006272     -0.002076      0.006422
      3.01518      2.99468      6.04771         0.000028      0.001247      0.007389
      4.50930      4.42662      4.42580        -0.000204      0.003712      0.000986
      6.06023      5.98534      2.90941        -0.014326     -0.004300     -0.008923
      9.04707      6.03097      3.04324        -0.011878      0.007154      0.005803
      3.03580      0.00069      9.04375        -0.007064      0.002371      0.003126
      4.54131      1.49144      7.55521        -0.004962      0.000094      0.005312
      6.04036      2.94989      6.08008        -0.001991      0.001675      0.001312
      7.55832      4.38036      4.46881        -0.002631      0.003618     -0.008208
      1.53817     -1.52807     13.52263        -0.002389      0.011300      0.003876
     -3.04333      9.06606      3.07090         0.012132     -0.011483      0.016800
     -1.51654     10.55635      1.52765        -0.002863      0.001919     -0.008118
      0.05997     12.01949      0.02683        -0.001606      0.003858      0.000129
     -4.48567      4.52696      7.48908         0.004658      0.008649     -0.007053
     -3.03802      6.02099      6.00302         0.009565      0.052779     -0.006116
     -1.61092      7.59006      4.60032         0.045218     -0.030677     -0.055043
     -0.08885      9.06618      3.07030         0.014663     -0.002444     -0.019701
     -3.03148      3.03255      9.04955         0.002636      0.004712      0.003163
     -1.55226      4.51628      7.54235        -0.002458      0.003329      0.002943
     -0.05306      6.03823      6.05882         0.008091     -0.010721      0.000846
      1.45275      7.55262      4.53743         0.003903      0.003194      0.005721
      2.98184      9.05729      2.99734         0.000342      0.004525      0.005912
     -1.50634      1.55240     10.46660         0.002809     -0.003631      0.006223
     -0.03102      3.01617      9.01837         0.001205     -0.000163      0.009741
      2.91508      5.97964      6.00888         0.000614      0.000594      0.005523
      0.03265      0.03267     12.01312         0.004079      0.014661      0.010712
      3.03520      3.00378      9.06086        -0.000905     -0.002723     -0.002146
      4.49420      4.43025      7.64782        -0.000946      0.002394      0.003317
      6.07062      3.00836     -0.01444         0.000677      0.017899      0.015301
      2.96615      2.97828      3.08588        -0.012581      0.009335      0.014922
     -0.02446      6.03960      3.04018         0.006290     -0.007125     -0.005341
      1.47985      4.51295      7.55684        -0.001039     -0.000645      0.008282
      1.51371      1.49692     10.56396         0.002568      0.004029      0.011784
      9.09497      3.07929      0.02485         0.005390     -0.008960     -0.007122
      6.01854      6.02475      6.09477         0.005080     -0.000108      0.000774
 -----------------------------------------------------------------------------------
    total drift:                                0.002879      0.001693     -0.000086


--------------------------------------------------------------------------------------------------------



  FREE ENERGIE OF THE ION-ELECTRON SYSTEM (eV)
  ---------------------------------------------------
  free  energy   TOTEN  =     -1122.55298906 eV

  energy  without entropy=    -1122.52464485  energy(sigma->0) =    -1122.54354099
 


--------------------------------------------------------------------------------------------------------


    POTLOK:  cpu time      0.2348: real time      0.1280


--------------------------------------------------------------------------------------------------------




--------------------------------------------------------------------------------------------------------


     LOOP+:  cpu time   3989.4100: real time   3988.4937
    4ORBIT:  cpu time      0.0000: real time      0.0000



 total charge

# of ion       s       p       d       tot
------------------------------------------
    1        0.420   6.316   4.212  10.949
    2        0.420   6.329   4.183  10.932
    3        0.426   6.329   4.221  10.975
    4        0.412   6.313   4.210  10.934
    5        0.411   6.324   4.216  10.951
    6        0.411   6.321   4.177  10.909
    7        0.377   6.293   2.160   8.830
    8        0.355   6.286   2.097   8.738
    9        0.346   6.277   2.115   8.739
   10        0.367   6.303   2.158   8.827
   11        0.362   6.280   2.166   8.809
   12        0.353   6.219   3.063   9.635
   13        0.352   6.222   3.013   9.586
   14        0.372   6.240   3.123   9.735
   15        0.358   6.239   3.063   9.660
   16        0.350   6.229   3.032   9.611
   17        0.356   6.227   3.071   9.654
   18        0.333   6.202   3.009   9.544
   19        0.352   6.235   3.055   9.643
   20        0.359   6.236   3.073   9.668
   21        0.360   6.235   3.080   9.675
   22        0.347   6.233   3.017   9.597
   23        0.352   6.225   3.090   9.667
   24        0.348   6.227   3.020   9.595
   25        0.348   6.227   3.023   9.598
   26        0.358   6.240   3.065   9.663
   27        0.355   6.244   3.058   9.657
   28        0.346   6.231   3.027   9.604
   29        0.352   6.211   3.078   9.641
   30        0.349   6.215   3.057   9.621
   31        0.356   6.239   3.078   9.673
   32        0.349   6.236   3.063   9.648
   33        0.353   6.237   3.058   9.648
   34        0.350   6.211   3.068   9.629
   35        0.355   6.226   3.069   9.650
   36        0.368   6.231   3.089   9.687
   37        0.341   6.212   3.001   9.554
   38        0.359   6.245   3.055   9.659
   39        0.358   6.242   3.073   9.673
   40        0.354   6.236   3.050   9.640
   41        0.344   6.212   3.054   9.611
   42        0.359   6.235   3.045   9.639
   43        0.358   6.244   3.067   9.669
   44        0.358   6.239   3.067   9.663
   45        0.351   6.236   3.041   9.628
   46        0.356   6.233   3.053   9.643
   47        0.354   6.227   3.084   9.665
   48        0.358   6.220   3.103   9.682
   49        0.359   6.239   3.086   9.684
   50        0.359   6.239   3.079   9.676
   51        0.354   6.233   3.064   9.651
   52        0.354   6.230   3.068   9.652
   53        0.355   6.238   3.057   9.649
   54        0.357   6.242   3.055   9.655
   55        0.360   6.223   3.123   9.706
   56        0.352   6.235   3.038   9.626
   57        0.354   6.237   3.072   9.663
   58        0.353   6.236   3.051   9.640
   59        0.361   6.237   3.094   9.692
   60        0.357   6.245   3.055   9.658
   61        0.348   6.242   3.031   9.622
   62        0.350   6.222   3.039   9.611
   63        0.373   6.245   3.079   9.697
   64        0.360   6.242   3.073   9.674
   65        0.357   6.240   3.097   9.693
   66        0.352   6.238   3.040   9.630
   67        0.351   6.227   3.042   9.620
   68        0.357   6.241   3.047   9.645
   69        0.355   6.243   3.059   9.657
   70        0.352   6.224   3.097   9.673
   71        0.358   6.223   3.087   9.669
   72        0.354   6.230   3.064   9.649
   73        0.357   6.242   3.056   9.655
   74        0.358   6.245   3.056   9.659
   75        0.352   6.233   3.045   9.630
   76        0.360   6.240   3.074   9.675
   77        0.354   6.241   3.067   9.663
   78        0.354   6.240   3.060   9.653
   79        0.356   6.232   3.065   9.654
   80        0.356   6.240   3.049   9.645
   81        0.360   6.242   3.079   9.682
   82        0.355   6.242   3.079   9.676
   83        0.353   6.234   3.073   9.659
   84        0.358   6.242   3.054   9.654
   85        0.357   6.244   3.033   9.633
   86        0.354   6.245   3.052   9.652
   87        0.346   6.231   3.035   9.611
   88        0.356   6.231   3.067   9.654
   89        0.355   6.240   3.066   9.661
   90        0.350   6.243   3.051   9.644
   91        0.347   6.241   3.036   9.624
   92        0.349   6.226   3.072   9.647
   93        0.349   6.219   3.075   9.643
   94        0.350   6.235   3.040   9.626
   95        0.355   6.243   3.063   9.661
   96        0.358   6.240   3.059   9.657
   97        0.353   6.231   3.055   9.639
   98        0.354   6.231   3.053   9.638
   99        0.351   6.224   3.048   9.624
  100        0.350   6.234   3.052   9.637
  101        0.355   6.235   3.052   9.642
  102        0.351   6.217   3.077   9.645
  103        0.356   6.237   3.049   9.643
  104        0.359   6.230   3.095   9.683
  105        0.348   6.232   3.060   9.640
  106        0.351   6.236   3.046   9.633
  107        0.356   6.238   3.052   9.647
  108        0.353   6.241   3.042   9.635
  109        0.349   6.246   3.042   9.637
  110        0.355   6.235   3.090   9.680
  111        0.356   6.226   3.085   9.668
  112        0.352   6.232   3.058   9.641
  113        0.354   6.246   3.082   9.682
  114        0.346   6.231   3.019   9.596
  115        0.353   6.226   3.098   9.676
  116        0.353   6.250   3.076   9.678
  117        0.353   6.222   3.088   9.663
  118        2.458   6.243   3.505  12.206
  119        2.460   6.259   3.500  12.220
  120        2.443   6.274   3.421  12.138
  121        2.446   6.271   3.459  12.176
  122        2.446   6.272   3.446  12.164
  123        2.258   5.975   1.873  10.106
  124        2.262   5.967   1.908  10.138
--------------------------------------------------
tot         58.619 773.394 381.4841213.497
 

 total amount of memory used by VASP MPI-rank0  7396245. kBytes
=======================================================================

   base      :      30000. kBytes
   nonl-proj :    1292066. kBytes
   fftplans  :      67629. kBytes
   grid      :     189621. kBytes
   one-center:       1928. kBytes
   wavefun   :    5815001. kBytes
 
  
  
 General timing and accounting informations for this job:
 ========================================================
  
                  Total CPU time used (sec):     4115.865
                            User time (sec):     3412.737
                          System time (sec):      703.129
                         Elapsed time (sec):     4115.157
  
                   Maximum memory used (kb):     9700848.
                   Average memory used (kb):          N/A
  
                          Minor page faults:     14926019
                          Major page faults:           12
                 Voluntary context switches:       741465
