127
Lattice="12.13407612154073 -0.002448297464165054 0.003365587388845699 -0.0024481550187637523 12.149112329652313 -0.004020308910634898 0.003365621958249256 -0.0040202511867883746 12.142100690539106" Properties=species:S:1:pos:R:3:forces:R:3 energy=-1148.2455978040284 free_energy=-1148.2455978040284 stress="0.005398274175775205 -0.0002488083519533102 6.210964771345981e-05 -0.0002488083519533102 0.004230471248154106 -7.674381111522125e-05 6.210964771345981e-05 -7.674381111522125e-05 0.004522526471045284" pbc="T T T"
Cr       0.00212233       3.01081258       9.08834503      -0.00220714      -0.00042688      -0.00000137
Cr       1.52632266      10.63148392      10.61508022       0.00120297      -0.00041051       0.00204899
Cr       7.60626934       1.51963587      10.59938290       0.00048505       0.00012072      -0.00044725
Cr      10.61117376       1.55231437       4.54101509      -0.00049385       0.00472057       0.00113626
Cr       9.10999304       0.01325382       9.14986469      -0.00120012      -0.00002904      -0.00039153
Cr       9.04014310       6.08063451       5.99418924      -0.00026019      -0.00047073       0.00121223
Ti       0.00567149       0.02734482       6.05523490      -0.00014225       0.00095696       0.00202700
Ti       4.55102402      10.65284752      10.61172386      -0.00126544       0.00232122       0.00355089
Ti       7.60694205       1.51894178       7.58127378      -0.00397878       0.00163988      -0.00055856
Ti       7.63182861       4.54682475       7.50579556      -0.00196515       0.00087587      -0.00085576
Ti       6.15283486       9.10678261       0.02077430       0.00251978       0.00127638      -0.00327284
Ti      10.59406273       1.48554989       1.40270663       0.00221899      -0.00011039      -0.00140992
Ti       9.04924070       3.02412036       3.03626251      -0.00104328      -0.00020203       0.00039589
Ti      10.60321686       4.62800998       4.59704462      -0.00083467      -0.00111817      -0.00079870
Ti       9.11260383       6.02136824      -0.01687833       0.00140057       0.00196582      -0.00048997
Ti      10.66941244       7.40473885       7.57208205      -0.00060750       0.00162936      -0.00190693
Ti       9.06485262       9.10966864       9.15208337      -0.00054547       0.00074956      -0.00140141
V        0.02209080      -0.05370173      -0.09954438       0.00141358      -0.00126194       0.00216158
V        1.40304035       1.57034283       1.41527162       0.00018937      -0.00129652       0.00185416
V       -0.11114289       0.07228497       3.08742136       0.00520143      -0.00153884       0.00017622
V        1.50736477       1.67591536       4.64393301       0.00060977      -0.00086097      -0.00110697
V        1.51790111       1.56719733       7.66631100      -0.00018155       0.00101117      -0.00083824
V        0.01184763       0.01506731       9.11597060      -0.00259616       0.00015771       0.00076940
V        1.45075248       1.51206748      10.57176386      -0.00163946      -0.00063647       0.00045431
V       -0.00162174       3.05042468      -0.02790243      -0.00048613      -0.00310799      -0.00167863
V        1.48707925       4.55977002       1.50848764       0.00101575       0.00078126       0.00073278
V       -0.02773583       3.02133639       3.03696532      -0.00047898       0.00038483      -0.00117180
V        1.52629198       4.57305653       4.58971311       0.00064247      -0.00181948      -0.00016045
V        0.02513257       2.99603797       6.09057585       0.00078398       0.00091725      -0.00104841
V        1.51840428       4.51674329       7.61157984      -0.00027991       0.00326082      -0.00361016
V       -0.00992762       6.07655451       0.00940518       0.00096897      -0.00156226      -0.00143941
V        1.59291982       7.54082395       1.47613079      -0.00044867      -0.00025134      -0.00064120
V        0.04165881       6.07282364       2.98603629       0.00087302      -0.00359733      -0.00216781
V        1.53662185       7.51684827       4.65759186       0.00180931       0.00105034      -0.00076481
V        0.15704600       6.01610908       6.10139550      -0.00156848      -0.00016815       0.00066948
V        1.53686670       7.55603399       7.61212735       0.00130385       0.00157594      -0.00053881
V        0.03456835       6.00724131       9.14315222       0.00069566       0.00144183      -0.00074955
V        1.54609354       7.57951338      10.64786865       0.00310409       0.00020046      -0.00140576
V        0.00640753       9.11157120      -0.02402082       0.00297986       0.00012441       0.00230073
V        1.56990608      10.57031169       1.30794984      -0.00150976      -0.00036091       0.00889760
V        1.66988769      10.48233632       4.81460798      -0.00164193       0.00007287      -0.00454563
V        0.10101940       9.10057055       6.11615152      -0.00080333       0.00309213       0.00037729
V        1.56878305      10.61622763       7.64762486      -0.00068856       0.00026779       0.00036793
V        2.97342757       0.01210126      -0.03940803      -0.00206819      -0.00062775       0.00232017
V        4.58572921       1.55503864       1.45776882       0.00271193       0.00048760      -0.00005390
V        4.61042970       1.58543912       4.62943390       0.00064340      -0.00187282       0.00052286
V        3.06550222       0.00585339       6.19052262      -0.00261798      -0.00212473       0.00025541
V        4.54735184       1.53016267       7.61567630      -0.00309957      -0.00069358      -0.00188237
V        2.97958925      -0.00195270       9.11136590      -0.00172340       0.00046319       0.00016543
V        4.51655715       1.48051500      10.63140771      -0.00068009       0.00204439      -0.00135749
V        3.02202980       3.00998291      -0.02296516       0.00095031      -0.00118261       0.00051035
V        4.53906419       4.56016147       1.52375562       0.00199576      -0.00253808      -0.00189723
V        4.57820036       4.50639174       4.57216168      -0.00070515       0.00213421       0.00094844
V        3.02710186       3.06866752       6.13293906      -0.00337485      -0.00002241       0.00016704
V        4.54445309       4.53800730       7.56601602      -0.00148315       0.00074995      -0.00137603
V        3.05357424       3.01032420       9.09638042      -0.00114979       0.00069019      -0.00236525
V        4.53146406       4.52505316      10.60562398      -0.00035403      -0.00030022      -0.00060336
V        3.01760971       6.05893008       0.01457803       0.00204488      -0.00002059      -0.00225775
V        4.54154279       7.58241709       1.47713053      -0.00025812      -0.00038225       0.00244974
V        3.08551973       6.08794160       6.07189638       0.00058162       0.00233099      -0.00303431
V        3.02634026       6.05005584       9.09459494       0.00044293      -0.00046240      -0.00060930
V        4.49940987       7.58635509      10.62036863       0.00029690      -0.00324686       0.00015884
V        3.01525862       9.08799035       0.01493328      -0.00370749       0.00264597       0.00130796
V        4.56451819      10.56596019       1.51597359      -0.00083182      -0.00081888      -0.00324705
V        3.20916036       8.98782335       3.13752031      -0.00285969       0.00170686      -0.00295847
V        4.63312437      10.66210456       4.64485509       0.00090144      -0.00693021       0.00174594
V        3.12151474       9.04263279       6.07816100       0.00004415       0.00114972      -0.00448156
V        4.56554716      10.64557361       7.62302858      -0.00021063      -0.00072054       0.00271623
V        3.01356573       9.11424854       9.11633495       0.00124965       0.00052790       0.00361872
V        6.10292669       0.03878564       0.01546040       0.00268980       0.00053766      -0.00182191
V        7.52926272       1.48979162       1.48747006       0.00094228      -0.00191081       0.00065641
V        6.07049398       0.00022997       3.01433294       0.00340822      -0.00203136      -0.00160676
V        7.50669905       1.50942322       4.56830657      -0.00044329       0.00112610      -0.00063043
V        6.03811491      -0.03649416       6.07077178       0.00206972      -0.00073877       0.00260621
V        6.09208639       0.08436122       9.16828173      -0.00193166       0.00309178       0.00255829
V        6.05064586       3.00576479      -0.02351002       0.00075825       0.00122820       0.00274089
V        7.49690241       4.54222097       1.52863513      -0.00004451       0.00058729       0.00211835
V        6.08897093       3.06393311       3.01482381      -0.00010424      -0.00137044       0.00003899
V        7.57482506       4.63217558       4.57722020      -0.00340558      -0.00116931      -0.00038224
V        5.99748092       3.06512135       6.00276646      -0.00180835      -0.00179399       0.00068711
V        6.00516868       3.00035548       9.16314082      -0.00147395       0.00049507      -0.00045826
V        7.54782042       4.49174762      10.56642894      -0.00057871       0.00014916      -0.00086888
V        7.58306001       7.59210997       1.60481028      -0.00161467       0.00005940       0.00042851
V        6.02785369       6.14713212       3.09992575      -0.00225041       0.00343227       0.00215933
V        7.64305759       7.55010834       4.49387992      -0.00251886       0.00099808       0.00313949
V        5.97071800       6.17477214       5.93729456      -0.00172282       0.00157593      -0.00057846
V        7.55250650       7.42464630       7.51572252       0.00132486       0.00215423       0.00121191
V        6.04316871       6.03440009       9.07639059       0.00168076      -0.00128205       0.00071859
V        7.52812526       7.52871630      10.55232318       0.00004285      -0.00070002      -0.00025817
V        7.58815276      10.67471711       1.53282793       0.00302016      -0.00246708      -0.00104897
V        6.00905864       9.05343372       3.10928464      -0.00140622      -0.00279666       0.00068919
V        7.47943834      10.68918524       4.46057223       0.00127465      -0.00013370      -0.00126368
V        6.01254036       9.09505992       6.00901254       0.00117643       0.00021793       0.00009835
V        7.54110130      10.83102698       7.66539179       0.00088229       0.00038045       0.00195327
V        6.13450782       9.11880270       9.05369238       0.00090384       0.00072123       0.00318384
V        7.60902954      10.73020071      10.61093244       0.00043433      -0.00057632       0.00178584
V        9.00841754       0.01997668      -0.06195785       0.00392356      -0.00219736      -0.00007543
V        9.04175705       0.01892682       3.03206684       0.00063429       0.00180287      -0.00062963
V        9.14984437       0.06950905       6.01012783      -0.00002537       0.00203176       0.00065191
V       10.60466879       1.55168396       7.68440815      -0.00076722       0.00167910       0.00197446
V       10.60610016       1.50117860      10.57701724       0.00034882      -0.00057764       0.00012213
V        9.01558372       3.02913976      -0.07175120       0.00040715      -0.00232450       0.00000327
V       10.69668517       4.54061816       1.52381518       0.00005957      -0.00185759      -0.00336233
V        9.20926401       2.89373121       5.95118056      -0.00159315       0.00126108       0.00137930
V       10.66641830       4.47686813       7.60830370      -0.00118409       0.00254341      -0.00059138
V        9.13150390       3.00964149       9.18835079      -0.00122469      -0.00014315       0.00069255
V       10.65438190       4.44390292      10.56276785       0.00050676      -0.00051596      -0.00046851
V       10.59940326       7.58940136       1.48470986       0.00128576      -0.00348247      -0.00220923
V        9.05190471       6.08954609       2.94799192      -0.00101724      -0.00377848      -0.00145069
V       10.58942233       7.40819342       4.56355176      -0.00383409      -0.00352741       0.00124632
V        9.09961044       6.03811813       9.20327916      -0.00012352       0.00058193      -0.00039851
V       10.70044618       7.57789085      10.64224434       0.00181156       0.00092238      -0.00204851
V        9.09356009       9.12175284       0.00627781       0.00389580      -0.00028597       0.00088706
V       10.52838863      10.70864051       1.42687931       0.00385486       0.00010515       0.00269399
V        9.04751715       9.14466893       2.96725901       0.00091385       0.00117253      -0.00125945
V       10.51616022      10.78153623       4.44046219       0.00026090       0.00602733      -0.00201785
V       10.65483665      10.79978766       7.74185163      -0.00134785       0.00231200       0.00070873
V       10.58879949      10.69837740      10.63991366       0.00076832      -0.00186162       0.00068595
W        1.51503007       4.52019185      10.61601275      -0.00018235      -0.00137341      -0.00047096
W        0.02947865       9.13147934       9.14763449       0.00088288       0.00083239       0.00021758
W        3.02456707       3.06302574       3.02612408       0.00284198      -0.00108552       0.00047589
W        3.10974843       6.13901277       3.11295462      -0.00283407      -0.00241035      -0.00320812
W        4.55498147       7.59793187       7.63291441       0.00033661       0.00114295       0.00066167
W        6.05644947       6.06194024      -0.00131013       0.00041811       0.00023433       0.00144451
Zr       0.05417880       9.17327594       3.06397694      -0.00563540      -0.00231910       0.00182019
Zr       2.93844728      -0.05976631       3.07622334       0.00479582      -0.00032794       0.00038381
Zr       9.12393272       9.20543131       6.06667693       0.00122656       0.00128274      -0.00220944
