127
Lattice="12.123038219 -0.015476755 0.012330929 -0.015489709 12.161392244 -0.018048251 0.012330998 -0.018049107 12.150357743" Properties=species:S:1:pos:R:3:forces:R:3 stress="0.00344716052418882 -0.00032458968209155887 0.0005819146203334738 -0.00032458968209155887 0.0037852006584466577 4.45518921405547e-05 0.0005819146203334738 4.45518921405547e-05 0.0037013709493769194" free_energy=-1143.96621919 energy=-1143.94507291 pbc="T T T"
Cr       0.01620000       3.00973000       9.09273000       0.00025800       0.00031800       0.00031900
Cr       1.52529000      10.63857000      10.62176000      -0.00028400       0.00017300      -0.00009200
Cr       7.60117000       1.49923000      10.63445000      -0.00032300       0.00026500      -0.00028300
Cr      10.59742000       1.53168000       4.56948000       0.00040800      -0.00039400       0.00075300
Cr       9.11541000      -0.00772000       9.18961000       0.00012200      -0.00010700       0.00016400
Cr       9.05447000       6.08132000       6.01193000      -0.00004500      -0.00062900      -0.00001000
Ti       0.01011000       0.04576000       6.08808000      -0.00052900      -0.00025700       0.00043100
Ti       4.54520000      10.65397000      10.59898000       0.00010600       0.00055100      -0.00020200
Ti       7.61586000       1.52391000       7.60996000      -0.00076100       0.00025400       0.00022100
Ti       7.64109000       4.52404000       7.51777000       0.00001600       0.00027200       0.00043600
Ti       6.12765000       9.04828000      12.12667000       0.00052600      -0.00024300      -0.00068200
Ti      10.58360000       1.45254000       1.43836000       0.00011500      -0.00070200       0.00035500
Ti       9.01394000       2.99035000       3.05678000       0.00022800      -0.00038100       0.00036500
Ti      10.59509000       4.57602000       4.58883000       0.00042000      -0.00024200       0.00039900
Ti       9.11071000       5.98003000      12.12233000      -0.00030900      -0.00060700      -0.00046700
Ti      10.67730000       7.42689000       7.61429000      -0.00012900       0.00015800      -0.00007600
Ti       9.04880000       9.09552000       9.17335000      -0.00049200       0.00003400       0.00048300
V        0.01622000      12.07257000      12.05681000       0.00012900      -0.00087300      -0.00017700
V        1.40066000       1.55504000       1.41000000      -0.00016900      -0.00021000      -0.00021000
V       12.03645000       0.02861000       3.12504000      -0.00012200      -0.00082500       0.00126300
V        1.49255000       1.70269000       4.63785000      -0.00052400       0.00000100       0.00112700
V        1.51826000       1.60470000       7.68353000      -0.00061600      -0.00007700      -0.00047700
V        0.03176000       0.01470000       9.13602000      -0.00045300      -0.00025900       0.00039000
V        1.47413000       1.50348000      10.58411000      -0.00010500       0.00011900       0.00012900
V        0.00963000       3.01465000      12.10797000      -0.00035400      -0.00059700      -0.00057300
V        1.47539000       4.54299000       1.49181000      -0.00022100      -0.00042800      -0.00007200
V       12.09875000       3.01725000       3.03670000      -0.00048000      -0.00039500       0.00048200
V        1.50383000       4.58808000       4.59145000      -0.00071000      -0.00036300      -0.00008100
V        0.04717000       3.03002000       6.11238000      -0.00053600       0.00028000      -0.00044100
V        1.59417000       4.62226000       7.52054000      -0.00068700       0.00037600      -0.00035900
V       12.10542000       6.05368000       0.01098000      -0.00047600      -0.00058300      -0.00061900
V        1.55863000       7.55289000       1.44091000      -0.00008700      -0.00011200      -0.00031600
V        0.00783000       6.03686000       2.97774000      -0.00020700      -0.00034300       0.00035200
V        1.78480000       7.36770000       4.86172000       0.00108200      -0.00062800       0.00256600
V        0.04739000       6.03341000       6.08378000       0.00000900      -0.00028500      -0.00027300
V        1.56131000       7.55586000       7.59843000      -0.00062700       0.00086800      -0.00019700
V        0.06694000       6.00791000       9.11905000       0.00039700      -0.00118000       0.00076600
V        1.53578000       7.58484000      10.62439000      -0.00036300       0.00036000      -0.00049600
V       -0.00231000       9.12091000      -0.00897000      -0.00039800      -0.00036700      -0.00005100
V        1.50280000      10.56674000       1.34485000      -0.00007500      -0.00048300       0.00022300
V        1.58333000      10.52449000       4.78653000      -0.00071400      -0.00053000       0.00082700
V        0.10101000       9.10837000       6.12046000       0.00068400       0.00029800       0.00011700
V        1.55832000      10.63919000       7.65285000      -0.00027800       0.00034100      -0.00006800
V        2.96545000      -0.01832000      12.10774000       0.00006900       0.00035600      -0.00020900
V        4.58201000       1.54931000       1.44843000       0.00011800       0.00005200      -0.00078400
V        4.60482000       1.60881000       4.61754000      -0.00009900       0.00043300       0.00043000
V        3.06788000       0.02150000       6.19416000      -0.00019600       0.00001500       0.00029000
V        4.56764000       1.56841000       7.62867000      -0.00000900       0.00070600       0.00004600
V        3.00335000       0.01468000       9.09213000      -0.00002300       0.00065600       0.00027600
V        4.52246000       1.48054000      10.63289000       0.00028700       0.00034500      -0.00065100
V        3.03363000       2.99281000      12.10808000       0.00036700      -0.00040000      -0.00043200
V        4.54259000       4.53742000       1.51131000      -0.00022600       0.00020200      -0.00028900
V        4.50544000       4.63618000       4.61473000      -0.00051400       0.00013500       0.00014100
V        3.01681000       3.01084000       6.10006000      -0.00026800       0.00048600      -0.00037400
V        4.46490000       4.58652000       7.50110000      -0.00036500       0.00022800      -0.00054300
V        3.05596000       3.04007000       9.07251000      -0.00035200       0.00030000       0.00004800
V        4.53825000       4.51269000      10.56712000       0.00043800       0.00030100      -0.00102900
V        3.02852000       6.05825000      12.11213000       0.00039800       0.00000900      -0.00002500
V        4.53018000       7.60171000       1.54112000      -0.00011800      -0.00011400       0.00004000
V        4.57089000       7.58734000       4.55827000       0.00018400       0.00077100       0.00039300
V        3.03290000       6.08110000       9.14414000      -0.00073900       0.00061800      -0.00047000
V        4.50758000       7.60023000      10.54559000       0.00013700       0.00030000      -0.00070700
V        2.99659000       9.08604000      12.12783000      -0.00015700       0.00035600      -0.00013200
V        4.52664000      10.58785000       1.46097000       0.00042900       0.00052100       0.00020900
V        3.08948000       9.06642000       3.05456000      -0.00007500       0.00018600       0.00057200
V        4.62945000      10.56467000       4.60544000       0.00033900       0.00041100       0.00053300
V        3.07387000       9.19286000       6.11633000      -0.00032700      -0.00007100       0.00042600
V        4.57008000      10.64028000       7.63218000       0.00017200       0.00064600      -0.00008600
V        3.03120000       9.10763000       9.09973000      -0.00010800       0.00014100      -0.00020800
V        6.10096000       0.04179000       0.01883000       0.00057300       0.00023900      -0.00045600
V        7.52638000       1.45012000       1.49794000       0.00014700      -0.00035700      -0.00017900
V        6.06177000      -0.00074000       3.02986000       0.00088700       0.00010600       0.00018800
V        7.50461000       1.48226000       4.60427000      -0.00017200      -0.00019400       0.00046000
V        6.02044000      -0.00713000       6.07004000      -0.00000900       0.00035500       0.00012600
V        6.08976000       0.08525000       9.18094000      -0.00007700       0.00063900       0.00014500
V        6.05356000       2.99284000      12.11466000       0.00031000       0.00004700      -0.00088400
V        7.47962000       4.52937000       1.53674000      -0.00023900      -0.00039200      -0.00058400
V        6.07602000       3.03971000       3.03310000      -0.00001000      -0.00014300      -0.00015000
V        7.55820000       4.58754000       4.57568000      -0.00011300       0.00011700       0.00020600
V        5.95911000       3.05836000       6.00848000      -0.00049200       0.00044600      -0.00005400
V        6.01461000       3.00894000       9.16336000      -0.00034900       0.00062300      -0.00038300
V        7.54875000       4.46459000      10.54952000      -0.00057600       0.00001100      -0.00111500
V        7.58585000       7.59277000       1.57319000       0.00051600       0.00044700      -0.00005600
V        6.06812000       6.06648000       3.03771000       0.00012900       0.00013900      -0.00065900
V        7.51738000       7.56632000       4.48135000       0.00022000       0.00051900      -0.00016400
V        6.08830000       6.10034000       5.98691000      -0.00014300       0.00025900      -0.00022700
V        7.51963000       7.43781000       7.55607000      -0.00058300       0.00036700       0.00036800
V        6.00867000       6.03451000       9.05149000       0.00022900       0.00062000      -0.00046800
V        7.53095000       7.49512000      10.55546000       0.00054500       0.00008700      -0.00038700
V        7.58506000      10.64717000       1.51981000       0.00065300      -0.00015700       0.00009700
V        6.04672000       9.12038000       2.99784000       0.00071600       0.00020700       0.00022100
V        7.48462000      10.70561000       4.45013000       0.00082900       0.00013200       0.00063500
V        6.04524000       9.12544000       6.06044000       0.00017800       0.00029100       0.00022100
V        7.53237000      10.83397000       7.68906000       0.00034600       0.00048800       0.00028200
V        6.11576000       9.09349000       9.06302000       0.00051600       0.00011100      -0.00001100
V        7.60202000      10.72407000      10.63287000       0.00051600       0.00043200       0.00018700
V        9.01397000      12.12343000      12.10127000      -0.00006600      -0.00077100      -0.00041600
V        9.04265000      -0.01076000       3.05721000       0.00042700      -0.00068600       0.00102400
V        9.14431000       0.04774000       6.04595000      -0.00006500      -0.00020400       0.00027500
V       10.61056000       1.53963000       7.70988000      -0.00002400      -0.00014400      -0.00023600
V       10.60106000       1.45921000      10.61266000      -0.00010200      -0.00027200       0.00015800
V        9.00654000       2.96962000      12.08056000      -0.00034400      -0.00044800      -0.00077100
V       10.67261000       4.49458000       1.52214000      -0.00004100      -0.00064100      -0.00022900
V        9.22113000       2.87199000       5.98092000       0.00032600      -0.00004000      -0.00004400
V       10.69073000       4.47027000       7.61496000      -0.00002300      -0.00034300      -0.00018200
V        9.14152000       3.00018000       9.20410000      -0.00007100       0.00064400       0.00015100
V       10.65765000       4.41586000      10.56251000       0.00013600      -0.00015000      -0.00105900
V       10.58419000       7.55864000       1.48093000       0.00038900      -0.00008700       0.00022200
V        9.03997000       6.06488000       2.94708000       0.00023000      -0.00005000      -0.00038900
V       10.52088000       7.34998000       4.60585000      -0.00014900      -0.00043800       0.00028200
V        9.10073000       6.01662000       9.20713000      -0.00038500      -0.00004000       0.00016500
V       10.69724000       7.56051000      10.64934000      -0.00004700      -0.00019700      -0.00048600
V        9.08877000       9.10576000       0.00964000       0.00035400      -0.00049900      -0.00019100
V       10.54359000      10.67110000       1.46780000       0.00043700      -0.00095600       0.00063700
V        9.03801000       9.12046000       2.97805000       0.00033800      -0.00059800       0.00021500
V       10.51679000      10.78542000       4.44803000       0.00053300      -0.00067400       0.00098400
V       10.63309000      10.79077000       7.76262000       0.00071100       0.00022000       0.00034900
V       10.58152000      10.67156000      10.67606000       0.00050400      -0.00007400       0.00023200
W        1.51469000       4.50638000      10.59571000      -0.00190000       0.00051300      -0.00123300
W        0.03374000       9.14922000       9.15742000       0.00048900       0.00068700       0.00119700
W        3.02671000       3.05662000       3.02745000       0.00056200       0.00039400       0.00014800
W        3.04014000       6.08020000       2.99037000       0.00017800      -0.00069300      -0.00088300
W        4.46555000       7.53275000       7.47596000      -0.00031000       0.00092500      -0.00062100
W        6.04970000       6.04808000      12.11996000       0.00044300       0.00014000      -0.00052600
Zr       0.03316000       9.06463000       3.13840000       0.00002500      -0.00112300       0.00093100
Zr       2.93745000      12.12165000       3.08411000       0.00035700      -0.00053400      -0.00004000
Zr       9.10976000       9.18694000       6.07102000      -0.00024800       0.00053900      -0.00043700
