 vasp.6.4.2 20Jul23 (build Sep 20 2024 16:56:05) complex                         
 executed on              LinuxNV date 2025.04.25  15:30:20
 running    4 mpi-ranks, with    8 threads/rank, on    1 nodes
 distrk:  each k-point on    4 cores,    1 groups
 distr:  one band on NCORE=   1 cores,    4 groups
 OpenACC runtime initialized ...    4 GPUs detected


--------------------------------------------------------------------------------------------------------


 INCAR:
   ENCUT = 520.000000
   POTIM = 0.200000
   SIGMA = 0.200000
   EDIFF = 1.00e-06
   EDIFFG = -1.00e-02
   ALGO = Normal
   GGA = PE
   PREC = Accurate
   IBRION = 2
   ISIF = 2
   ISMEAR = 1
   LORBIT = 11
   NELM = 100
   NSW = -1
   LCHARG = .TRUE.
   LWAVE = .FALSE.
   LREAL = .FALSE.

 POTCAR:    PAW_PBE Cr_pv 02Aug2007               
 POTCAR:    PAW_PBE Ti_pv 07Sep2000               
 POTCAR:    PAW_PBE V_pv 07Sep2000                
 POTCAR:    PAW_PBE W_sv 04Sep2015                
 POTCAR:    PAW_PBE Zr_sv 04Jan2005               
 POTCAR:    PAW_PBE Cr_pv 02Aug2007               
   SHA256 =  c9a7df34d3cdbacf1090e328ef39c0b420964e11c23f63548d1ac9dd218cdba0 Cr_pv/POTCAR          
   COPYR  = (c) Copyright 02Aug2007 Georg Kresse                                                    
   COPYR  = This file is part of the software VASP. Any use, copying, and all other rights are regul
   COPYR  = If you do not have a valid VASP license, you may not use, copy or distribute this file. 
   VRHFIN =Cr : p6d5s1                                                                              
   LEXCH  = PE                                                                                      
   EATOM  =  1647.9177 eV,  121.1185 Ry                                                             
                                                                                                    
   TITEL  = PAW_PBE Cr_pv 02Aug2007                                                                 
   LULTRA =        F    use ultrasoft PP ?                                                          
   IUNSCR =        1    unscreen: 0-lin 1-nonlin 2-no                                               
   RPACOR =    2.080    partial core radius                                                         
   POMASS =   51.996; ZVAL   =   12.000    mass and valenz                                          
   RCORE  =    2.300    outmost cutoff radius                                                       
   RWIGS  =    2.500; RWIGS  =    1.323    wigner-seitz radius (au A)                               
   ENMAX  =  265.681; ENMIN  =  199.261 eV                                                          
   ICORE  =        3    local potential                                                             
   LCOR   =        T    correct aug charges                                                         
   LPAW   =        T    paw PP                                                                      
   EAUG   =  519.424                                                                                
   DEXC   =    0.000                                                                                
   RMAX   =    2.356    core radius for proj-oper                                                   
   RAUG   =    1.300    factor for augmentation sphere                                              
   RDEP   =    2.447    radius for radial grids                                                     
   RDEPT  =    1.882    core radius for aug-charge                                                  
                                                                                                    
   Atomic configuration                                                                             
    8 entries                                                                                       
     n  l   j            E        occ.                                                              
     1  0  0.50     -5880.4963   2.0000                                                             
     2  0  0.50      -667.0865   2.0000                                                             
     2  1  1.50      -560.6250   6.0000                                                             
     3  0  0.50       -73.9860   2.0000                                                             
     3  1  1.50       -45.4378   6.0000                                                             
     3  2  2.50        -2.9137   5.0000                                                             
     4  0  0.50        -4.0071   1.0000                                                             
     4  3  2.50        -1.3606   0.0000                                                             
   Description                                                                                      
     l       E           TYP  RCUT    TYP  RCUT                                                     
     1    -45.4377911     23  2.000                                                                 
     1      1.3605826     23  2.000                                                                 
     2     -2.9136672     23  2.300                                                                 
     2     -4.2742498     23  2.300                                                                 
     0     -4.0071320     23  2.300                                                                 
     0      9.4498803     23  2.300                                                                 
     3      2.7211652     23  2.300                                                                 
  local pseudopotential read in
  partial core-charges read in
  partial kinetic energy density read in
  atomic valenz-charges read in
  non local Contribution for L=            1  read in
    real space projection operators read in
  non local Contribution for L=            1  read in
    real space projection operators read in
  non local Contribution for L=            2  read in
    real space projection operators read in
  non local Contribution for L=            2  read in
    real space projection operators read in
  non local Contribution for L=            0  read in
    real space projection operators read in
  non local Contribution for L=            0  read in
    real space projection operators read in
    PAW grid and wavefunctions read in
 
   number of l-projection  operators is LMAX  =            6
   number of lm-projection operators is LMMAX =           18
 
 POTCAR:    PAW_PBE Ti_pv 07Sep2000               
   SHA256 =  f757a1b2c6d082f4c628fa3d987464a8763bf92e53844ac0500b0e2ddc9ce5c0 Ti_pv/POTCAR          
   COPYR  = (c) Copyright 07Sep2000 Georg Kresse                                                    
   COPYR  = This file is part of the software VASP. Any use, copying, and all other rights are regul
   COPYR  = If you do not have a valid VASP license, you may not use, copy or distribute this file. 
   VRHFIN =Ti: d3 s1                                                                                
   LEXCH  = PE                                                                                      
   EATOM  =  1042.5995 eV,   76.6289 Ry                                                             
                                                                                                    
   TITEL  = PAW_PBE Ti_pv 07Sep2000                                                                 
   LULTRA =        F    use ultrasoft PP ?                                                          
   IUNSCR =        1    unscreen: 0-lin 1-nonlin 2-no                                               
   RPACOR =    2.200    partial core radius                                                         
   POMASS =   47.880; ZVAL   =   10.000    mass and valenz                                          
   RCORE  =    2.500    outmost cutoff radius                                                       
   RWIGS  =    2.500; RWIGS  =    1.323    wigner-seitz radius (au A)                               
   ENMAX  =  222.335; ENMIN  =  166.751 eV                                                          
   RCLOC  =    1.701    cutoff for local pot                                                        
   LCOR   =        T    correct aug charges                                                         
   LPAW   =        T    paw PP                                                                      
   EAUG   =  482.848                                                                                
   DEXC   =    0.000                                                                                
   RMAX   =    2.564    core radius for proj-oper                                                   
   RAUG   =    1.300    factor for augmentation sphere                                              
   RDEP   =    2.538    radius for radial grids                                                     
   RDEPT  =    1.952    core radius for aug-charge                                                  
                                                                                                    
   Atomic configuration                                                                             
    8 entries                                                                                       
     n  l   j            E        occ.                                                              
     1  0  0.50     -4865.3608   2.0000                                                             
     2  0  0.50      -533.1368   2.0000                                                             
     2  1  1.50      -440.5031   6.0000                                                             
     3  0  0.50       -59.3186   2.0000                                                             
     3  1  1.50       -35.7012   6.0000                                                             
     3  2  2.50        -1.9157   3.0000                                                             
     4  0  0.50        -3.7291   1.0000                                                             
     4  3  2.50        -1.3606   0.0000                                                             
   Description                                                                                      
     l       E           TYP  RCUT    TYP  RCUT                                                     
     1    -35.7012140     23  2.300                                                                 
     1     -1.3605826     23  2.300                                                                 
     2     -1.9156996     23  2.500                                                                 
     2     -0.4063033     23  2.500                                                                 
     0     -3.7290856     23  2.500                                                                 
     0     20.4087390     23  2.500                                                                 
  local pseudopotential read in
  partial core-charges read in
  partial kinetic energy density read in
  atomic valenz-charges read in
  non local Contribution for L=            1  read in
    real space projection operators read in
  non local Contribution for L=            1  read in
    real space projection operators read in
  non local Contribution for L=            2  read in
    real space projection operators read in
  non local Contribution for L=            2  read in
    real space projection operators read in
  non local Contribution for L=            0  read in
    real space projection operators read in
  non local Contribution for L=            0  read in
    real space projection operators read in
    PAW grid and wavefunctions read in
 
   number of l-projection  operators is LMAX  =            6
   number of lm-projection operators is LMMAX =           18
 
 POTCAR:    PAW_PBE V_pv 07Sep2000                
   SHA256 =  1175d3c8cb4ffd1d150a520fa74fae5c3ec72c0849b5615a94a5372dd2cf07f7 V_pv/POTCAR           
   COPYR  = (c) Copyright 07Sep2000 Georg Kresse                                                    
   COPYR  = This file is part of the software VASP. Any use, copying, and all other rights are regul
   COPYR  = If you do not have a valid VASP license, you may not use, copy or distribute this file. 
   VRHFIN =V: p6 d4 s1                                                                              
   LEXCH  = PE                                                                                      
   EATOM  =  1321.6206 eV,   97.1364 Ry                                                             
                                                                                                    
   TITEL  = PAW_PBE V_pv 07Sep2000                                                                  
   LULTRA =        F    use ultrasoft PP ?                                                          
   IUNSCR =        1    unscreen: 0-lin 1-nonlin 2-no                                               
   RPACOR =    1.700    partial core radius                                                         
   POMASS =   50.941; ZVAL   =   11.000    mass and valenz                                          
   RCORE  =    2.300    outmost cutoff radius                                                       
   RWIGS  =    2.300; RWIGS  =    1.217    wigner-seitz radius (au A)                               
   ENMAX  =  263.673; ENMIN  =  197.755 eV                                                          
   RCLOC  =    1.779    cutoff for local pot                                                        
   LCOR   =        T    correct aug charges                                                         
   LPAW   =        T    paw PP                                                                      
   EAUG   =  598.473                                                                                
   DEXC   =    0.000                                                                                
   RMAX   =    2.359    core radius for proj-oper                                                   
   RAUG   =    1.300    factor for augmentation sphere                                              
   RDEP   =    2.430    radius for radial grids                                                     
   RDEPT  =    1.700    core radius for aug-charge                                                  
                                                                                                    
   Atomic configuration                                                                             
    8 entries                                                                                       
     n  l   j            E        occ.                                                              
     1  0  0.50     -5360.7193   2.0000                                                             
     2  0  0.50      -598.4546   2.0000                                                             
     2  1  1.50      -499.0155   6.0000                                                             
     3  0  0.50       -66.5711   2.0000                                                             
     3  1  1.50       -40.5282   6.0000                                                             
     3  2  2.50        -2.4291   4.0000                                                             
     4  0  0.50        -3.8743   1.0000                                                             
     4  3  2.50        -1.3606   0.0000                                                             
   Description                                                                                      
     l       E           TYP  RCUT    TYP  RCUT                                                     
     1    -40.5282431     23  2.000                                                                 
     1      5.4423304     23  2.000                                                                 
     2     -2.4290905     23  2.300                                                                 
     2     -1.0472488     23  2.300                                                                 
     0     -3.8742754     23  2.300                                                                 
     0     27.2116520     23  2.300                                                                 
  local pseudopotential read in
  partial core-charges read in
  partial kinetic energy density read in
  atomic valenz-charges read in
  non local Contribution for L=            1  read in
    real space projection operators read in
  non local Contribution for L=            1  read in
    real space projection operators read in
  non local Contribution for L=            2  read in
    real space projection operators read in
  non local Contribution for L=            2  read in
    real space projection operators read in
  non local Contribution for L=            0  read in
    real space projection operators read in
  non local Contribution for L=            0  read in
    real space projection operators read in
    PAW grid and wavefunctions read in
 
   number of l-projection  operators is LMAX  =            6
   number of lm-projection operators is LMMAX =           18
 
 POTCAR:    PAW_PBE W_sv 04Sep2015                
   SHA256 =  931c2d770f65867ef30f3db3421922900fc0890ebac5c3e12f63b6a2064023d7 W_sv/POTCAR           
   COPYR  = (c) Copyright 04Sep2015 Georg Kresse                                                    
   COPYR  = This file is part of the software VASP. Any use, copying, and all other rights are regul
   COPYR  = If you do not have a valid VASP license, you may not use, copy or distribute this file. 
   VRHFIN =W : 5p6s5d                                                                               
   LEXCH  = PE                                                                                      
   EATOM  =  1865.5791 eV,  137.1162 Ry                                                             
                                                                                                    
   TITEL  = PAW_PBE W_sv 04Sep2015                                                                  
   LULTRA =        F    use ultrasoft PP ?                                                          
   IUNSCR =        1    unscreen: 0-lin 1-nonlin 2-no                                               
   RPACOR =    2.330    partial core radius                                                         
   POMASS =  183.850; ZVAL   =   14.000    mass and valenz                                          
   RCORE  =    2.500    outmost cutoff radius                                                       
   RWIGS  =    2.750; RWIGS  =    1.455    wigner-seitz radius (au A)                               
   ENMAX  =  223.057; ENMIN  =  167.293 eV                                                          
   ICORE  =        3    local potential                                                             
   LCOR   =        T    correct aug charges                                                         
   LPAW   =        T    paw PP                                                                      
   EAUG   =  373.438                                                                                
   DEXC   =    0.000                                                                                
   RMAX   =    2.565    core radius for proj-oper                                                   
   RAUG   =    1.300    factor for augmentation sphere                                              
   RDEP   =    2.539    radius for radial grids                                                     
   RDEPT  =    2.126    core radius for aug-charge                                                  
                                                                                                    
   Atomic configuration                                                                             
   15 entries                                                                                       
     n  l   j            E        occ.                                                              
     1  0  0.50    -69465.5834   2.0000                                                             
     2  0  0.50    -11986.2640   2.0000                                                             
     2  1  1.50    -10479.8613   6.0000                                                             
     3  0  0.50     -2759.0756   2.0000                                                             
     3  1  1.50     -2313.1855   6.0000                                                             
     3  2  2.50     -1801.1183  10.0000                                                             
     4  0  0.50      -567.6789   2.0000                                                             
     4  1  1.50      -421.4692   6.0000                                                             
     4  2  2.50      -236.3471  10.0000                                                             
     4  3  3.50       -31.2665  14.0000                                                             
     5  0  0.50       -77.1084   2.0000                                                             
     6  0  0.50        -5.1438   1.0000                                                             
     5  1  1.50       -41.3856   6.0000                                                             
     5  2  2.50        -3.3185   5.0000                                                             
     5  3  2.50        -1.3606   0.0000                                                             
   Description                                                                                      
     l       E           TYP  RCUT    TYP  RCUT                                                     
     0    -77.1084470     23  2.100                                                                 
     0     -5.1437956     23  2.300                                                                 
     1    -41.3855615     23  2.500                                                                 
     1     -2.7211652     23  2.500                                                                 
     2     -3.3185025     23  2.500                                                                 
     2     -1.5965151     23  2.500                                                                 
     3     -1.3605826     23  2.500                                                                 
  local pseudopotential read in
  partial core-charges read in
  partial kinetic energy density read in
  kinetic energy density of atom read in
  atomic valenz-charges read in
  non local Contribution for L=            0  read in
    real space projection operators read in
  non local Contribution for L=            0  read in
    real space projection operators read in
  non local Contribution for L=            1  read in
    real space projection operators read in
  non local Contribution for L=            1  read in
    real space projection operators read in
  non local Contribution for L=            2  read in
    real space projection operators read in
  non local Contribution for L=            2  read in
    real space projection operators read in
    PAW grid and wavefunctions read in
 
   number of l-projection  operators is LMAX  =            6
   number of lm-projection operators is LMMAX =           18
 
 POTCAR:    PAW_PBE Zr_sv 04Jan2005               
   SHA256 =  25aed69cb10325f9d37c5c68912b61a17387d1f8e4f1d804860ffa10c8a4bf76 Zr_sv/POTCAR          
   COPYR  = (c) Copyright 04Jan2005 Georg Kresse                                                    
   COPYR  = This file is part of the software VASP. Any use, copying, and all other rights are regul
   COPYR  = If you do not have a valid VASP license, you may not use, copy or distribute this file. 
   VRHFIN =Zr: 4s4p5s4d                                                                             
   LEXCH  = PE                                                                                      
   EATOM  =  1284.2219 eV,   94.3876 Ry                                                             
                                                                                                    
   TITEL  = PAW_PBE Zr_sv 04Jan2005                                                                 
   LULTRA =        F    use ultrasoft PP ?                                                          
   IUNSCR =        1    unscreen: 0-lin 1-nonlin 2-no                                               
   RPACOR =    2.200    partial core radius                                                         
   POMASS =   91.224; ZVAL   =   12.000    mass and valenz                                          
   RCORE  =    2.500    outmost cutoff radius                                                       
   RWIGS  =    3.070; RWIGS  =    1.625    wigner-seitz radius (au A)                               
   ENMAX  =  229.898; ENMIN  =  172.424 eV                                                          
   ICORE  =        3    local potential                                                             
   LCOR   =        T    correct aug charges                                                         
   LPAW   =        T    paw PP                                                                      
   EAUG   =  461.257                                                                                
   DEXC   =    0.000                                                                                
   RMAX   =    2.561    core radius for proj-oper                                                   
   RAUG   =    1.300    factor for augmentation sphere                                              
   RDEP   =    2.597    radius for radial grids                                                     
   RDEPT  =    2.007    core radius for aug-charge                                                  
                                                                                                    
   Atomic configuration                                                                             
   11 entries                                                                                       
     n  l   j            E        occ.                                                              
     1  0  0.50    -17820.0161   2.0000                                                             
     2  0  0.50     -2467.0882   2.0000                                                             
     2  1  1.50     -2199.6095   6.0000                                                             
     3  0  0.50      -402.4863   2.0000                                                             
     3  1  1.50      -315.3675   6.0000                                                             
     3  2  2.50      -172.4472  10.0000                                                             
     4  0  0.50       -52.4146   2.0000                                                             
     5  0  0.50        -3.8421   1.0000                                                             
     4  1  1.50       -30.5054   6.0000                                                             
     4  2  2.50        -2.3341   3.0000                                                             
     4  3  2.50        -1.3606   0.0000                                                             
   Description                                                                                      
     l       E           TYP  RCUT    TYP  RCUT                                                     
     0    -52.4145962     23  2.200                                                                 
     0     -3.8421270     23  2.500                                                                 
     1    -30.5053914     23  2.200                                                                 
     1     20.4087390     23  2.200                                                                 
     2     -2.3340816     23  2.500                                                                 
     2     -0.6120942     23  2.500                                                                 
     3     -4.0817478     23  2.500                                                                 
  local pseudopotential read in
  partial core-charges read in
  partial kinetic energy density read in
  atomic valenz-charges read in
  non local Contribution for L=            0  read in
    real space projection operators read in
  non local Contribution for L=            0  read in
    real space projection operators read in
  non local Contribution for L=            1  read in
    real space projection operators read in
  non local Contribution for L=            1  read in
    real space projection operators read in
  non local Contribution for L=            2  read in
    real space projection operators read in
  non local Contribution for L=            2  read in
    real space projection operators read in
    PAW grid and wavefunctions read in
 
   number of l-projection  operators is LMAX  =            6
   number of lm-projection operators is LMMAX =           18
 
 -----------------------------------------------------------------------------
|                                                                             |
|               ----> ADVICE to this user running VASP <----                  |
|                                                                             |
|     You have a (more or less) 'large supercell' and for larger cells it     |
|     might be more efficient to use real-space projection operators.         |
|     Therefore, try LREAL= Auto in the INCAR file.                           |
|     Mind: For very accurate calculation, you might also keep the            |
|     reciprocal projection scheme (i.e. LREAL=.FALSE.).                      |
|                                                                             |
 -----------------------------------------------------------------------------

  PAW_PBE Cr_pv 02Aug2007               :
 energy of atom  1       EATOM=-1647.9177
 kinetic energy error for atom=    0.0057 (will be added to EATOM!!)
  PAW_PBE Ti_pv 07Sep2000               :
 energy of atom  2       EATOM=-1042.5995
 kinetic energy error for atom=    0.0019 (will be added to EATOM!!)
  PAW_PBE V_pv 07Sep2000                :
 energy of atom  3       EATOM=-1321.6206
 kinetic energy error for atom=    0.0054 (will be added to EATOM!!)
  PAW_PBE W_sv 04Sep2015                :
 energy of atom  4       EATOM=-1865.5791
 kinetic energy error for atom=    0.0026 (will be added to EATOM!!)
  PAW_PBE Zr_sv 04Jan2005               :
 energy of atom  5       EATOM=-1284.2219
 kinetic energy error for atom=    0.0043 (will be added to EATOM!!)
 
 
 POSCAR: Cr Ti V  W  Zr
  positions in cartesian coordinates
  No initial velocities read in
 exchange correlation table for  LEXCH =        8
   RHO(1)=    0.500       N(1)  =     2000
   RHO(2)=  100.500       N(2)  =     4000
 


--------------------------------------------------------------------------------------------------------


 ion  position               nearest neighbor table
   1  1.000  1.000  0.196-  35 2.51 118 2.53  17 2.53  22 2.55  40 2.57 103 2.58  45 2.59  18 2.60
                            23 2.94 102 2.95  41 2.97  34 3.00 119 3.01  44 3.03
   2  0.394  0.197  0.194-  39 2.51  66 2.56  44 2.56  71 2.59  63 2.60  67 2.61   3 2.62  14 2.64
                            62 2.97  43 2.98  40 3.02  12 3.04  13 3.07
   3  0.593  0.196  0.193-  62 2.51  84 2.51 111 2.54  87 2.54  13 2.61   2 2.62  12 2.71 107 2.72
                            83 2.93  63 3.01  66 3.01  14 3.10 124 3.19
   4  0.800  0.400  0.801- 109 2.46 112 2.48  88 2.49  31 2.54 117 2.62  92 2.63  30 2.63 108 2.64
                            16 3.00  33 3.01  91 3.02 113 3.02
   5  0.999  0.602  0.196-  31 2.63  32 2.66  35 2.67  59 2.68 109 2.68 114 2.68  54 2.69  27 2.71
                            58 2.95 110 2.97  36 2.98  55 2.98 113 3.01  26 3.05
   6  0.989  0.595  0.597- 116 2.63  33 2.68  32 2.69  29 2.69 111 2.69  37 2.70  61 2.74   8 2.82
                           115 2.95 112 2.98
   7  0.199  0.002  0.600-  46 2.63  60 2.63  19 2.67  69 2.67  36 2.68  41 2.68  64 2.69  42 2.70
                            37 2.98  68 2.98  59 2.98  47 3.00  65 3.05
   8  0.203  0.594  0.595-  82 2.63  28 2.63  51 2.66  55 2.69  60 2.70  56 2.73   6 2.82  10 2.82
                            50 2.94  29 3.00  81 3.01  78 3.03
   9  0.401  0.000  0.399-  80 2.66  58 2.66  41 2.67  64 2.69  63 2.71  67 2.73  85 2.74  88 2.75
                            12 2.87  59 2.98  79 3.03  68 3.04
  10  0.442  0.639  0.636-  96 2.56  78 2.62  81 2.63 101 2.73  97 2.79  77 2.81   8 2.82  73 2.82
                            82 2.84
  11  0.411  0.796  0.997-  84 2.62  82 2.63  56 2.66  75 2.67  79 2.71  62 2.75  57 2.82  99 2.87
                            78 2.90  98 2.92  83 2.96
  12  0.588  0.191  0.396-  63 2.63  67 2.64  14 2.70   3 2.71  88 2.76  85 2.77 124 2.80 112 2.82
                             9 2.87  84 2.94   2 3.04
  13  0.600  0.399  0.195-   3 2.61  66 2.64  90 2.65 110 2.69  71 2.69 115 2.70  94 2.70  14 2.71
                           111 2.81  87 2.94 114 2.99  70 2.99   2 3.07
  14  0.592  0.400  0.399-  72 2.62   2 2.64 111 2.68  95 2.68  91 2.69  12 2.70  13 2.71 116 2.73
                            96 2.86  67 2.96  71 2.96   3 3.10
  15  0.802  0.200  0.998- 108 2.56 107 2.60 102 2.66  27 2.67  21 2.68 109 2.70  87 2.71 123 2.75
                           110 2.97  26 3.00 106 3.00  89 3.00  83 3.04
  16  0.800  0.195  0.610- 108 2.50 105 2.62  30 2.65  88 2.66  24 2.76  85 2.76 124 2.76 112 2.77
                            86 2.92  25 2.95   4 3.00
  17  0.999  0.998  0.002-   1 2.53 102 2.54  34 2.57  21 2.60  39 2.61  20 2.62  44 2.62 122 2.68

  18  0.997  0.998  0.393- 104 2.55  23 2.55 119 2.57  41 2.59   1 2.60  36 2.63  46 2.69  19 2.72

  19  0.995  0.999  0.599-  24 2.51 105 2.54  37 2.54 120 2.61  47 2.63  20 2.65   7 2.67  18 2.72

  20  0.997  0.997  0.802- 106 2.54  38 2.56 121 2.59  43 2.61  25 2.61  17 2.62  42 2.62  19 2.65

  21  0.006  0.198  0.000-  43 2.51 106 2.59  25 2.59  17 2.60  49 2.60  22 2.63  26 2.64  15 2.68

  22  0.004  0.197  0.199-   1 2.55  23 2.56  44 2.59 102 2.59  50 2.62  21 2.63 107 2.64  27 2.64

  23  0.011  0.199  0.397-  45 2.47  18 2.55  22 2.56  51 2.58  28 2.67 103 2.70  24 2.73 124 2.73
                             1 2.94
  24  0.008  0.196  0.603-  19 2.51  46 2.53  52 2.59  25 2.62  29 2.67 104 2.70  23 2.73  16 2.76
                            47 2.92 124 3.08
  25  0.001  0.198  0.801-  21 2.59  48 2.60  47 2.61  20 2.61  24 2.62  30 2.64 108 2.65 105 2.66
                            16 2.95
  26  0.002  0.398  1.000-  30 2.54  48 2.61 108 2.61  27 2.62  54 2.62  21 2.64  31 2.65 109 2.68
                            15 3.00   5 3.05
  27  0.009  0.401  0.202-  55 2.49  28 2.53  49 2.55  26 2.62 110 2.63  22 2.64  15 2.67   5 2.71

  28  0.999  0.397  0.390-  27 2.53 107 2.55  50 2.60  32 2.63   8 2.63  23 2.67 111 2.74  29 2.90
                           124 2.96
  29  0.019  0.409  0.621-  56 2.38  30 2.55  51 2.59  24 2.67 124 2.68   6 2.69 112 2.85  52 2.85
                            28 2.90   8 3.00
  30  0.004  0.404  0.809-  26 2.54  53 2.55  29 2.55   4 2.63  33 2.64  25 2.64  16 2.65  52 2.66
                            31 2.91
  31  0.996  0.597  0.993-  33 2.48   4 2.54  58 2.62  34 2.62   5 2.63  53 2.63  26 2.65 113 2.65
                            30 2.91
  32  0.999  0.600  0.398-  36 2.59 115 2.59 110 2.60  55 2.62  60 2.63  28 2.63   5 2.66   6 2.69

  33  0.001  0.604  0.808-  31 2.48  57 2.55 112 2.58 117 2.62  56 2.62  38 2.63  30 2.64   6 2.68
                             4 3.01
  34  0.001  0.801  0.999- 118 2.55  38 2.57  17 2.57  40 2.57  35 2.58  57 2.59 117 2.59  31 2.62
                             1 3.00
  35  0.999  0.808  0.197-   1 2.51  41 2.53  34 2.58 119 2.58  58 2.64  36 2.64 113 2.64   5 2.67
                           118 2.86
  36  0.996  0.796  0.393-  32 2.59 114 2.60 120 2.61  59 2.62  18 2.63  35 2.64  37 2.68   7 2.68
                             5 2.98
  37  0.002  0.807  0.602-  19 2.54  42 2.57  60 2.58 115 2.60 121 2.63  38 2.67  36 2.68   6 2.70
                             7 2.98
  38  0.999  0.803  0.803-  20 2.56 116 2.56  34 2.57  39 2.62  33 2.63  61 2.65  37 2.67 122 2.79

  39  0.200  0.004  0.004-   2 2.51  40 2.58  43 2.59  42 2.59  17 2.61  38 2.62  57 2.64  62 2.66
                            63 2.90
  40  0.196  0.999  0.197-  41 2.57   1 2.57  34 2.57  39 2.58  67 2.60  44 2.61  63 2.62  58 2.64
                             2 3.02
  41  0.195  0.998  0.393-  35 2.53  59 2.57  40 2.57  45 2.57  18 2.59  68 2.65   9 2.67   7 2.68
                             1 2.97
  42  0.198  1.000  0.805-  66 2.54  61 2.57  37 2.57  39 2.59  47 2.61  20 2.62  65 2.64   7 2.70

  43  0.197  0.199  0.999-  21 2.51  66 2.55  48 2.57  39 2.59  44 2.59  71 2.61  20 2.61  47 2.62
                             2 2.98
  44  0.202  0.201  0.199-   2 2.56  22 2.59  43 2.59  72 2.59  49 2.60  40 2.61  45 2.62  17 2.62
                            67 2.89   1 3.03
  45  0.198  0.197  0.396-  23 2.47  67 2.51  41 2.57   1 2.59  44 2.62  46 2.63  50 2.63  73 2.67

  46  0.202  0.204  0.600-  51 2.47  24 2.53  68 2.59  74 2.61   7 2.63  45 2.63  47 2.66  18 2.69

  47  0.199  0.198  0.800-  52 2.57  25 2.61  42 2.61  70 2.62  43 2.62  69 2.63  19 2.63  46 2.66
                            24 2.92   7 3.00
  48  0.200  0.397  0.001-  43 2.57  25 2.60  49 2.60  26 2.61  52 2.61  76 2.61  70 2.62  53 2.63
                            75 2.92
  49  0.202  0.400  0.201-  27 2.55  71 2.56  50 2.59  44 2.60  48 2.60  21 2.60  54 2.61  77 2.61

  50  0.202  0.401  0.398-  72 2.51  49 2.59  28 2.60  22 2.62  45 2.63  55 2.67  51 2.69   8 2.94

  51  0.204  0.394  0.601-  46 2.47  73 2.56  23 2.58  78 2.58  29 2.59  52 2.63   8 2.66  50 2.69

  52  0.202  0.397  0.803-  75 2.53  47 2.57  24 2.59  48 2.61  74 2.62  51 2.63  56 2.65  30 2.66
                            29 2.85
  53  0.201  0.599  0.003-  30 2.55  54 2.56  79 2.58  75 2.60  56 2.62  48 2.63  31 2.63  57 2.65

  54  0.204  0.599  0.199-  55 2.54  53 2.56  80 2.58  76 2.59  49 2.61  26 2.62  58 2.62   5 2.69

  55  0.196  0.600  0.390-  27 2.49  54 2.54  81 2.57  32 2.62  59 2.64  77 2.65  50 2.67   8 2.69
                             5 2.98
  56  0.197  0.597  0.801-  29 2.38  53 2.62  33 2.62  78 2.63  52 2.65  11 2.66  61 2.68   8 2.73

  57  0.198  0.800  0.001-  63 2.49  33 2.55  58 2.59  34 2.59  61 2.61  39 2.64  53 2.65  11 2.82

  58  0.196  0.796  0.196-  57 2.59  31 2.62  54 2.62  59 2.64  35 2.64  40 2.64  79 2.65   9 2.66
                             5 2.95
  59  0.203  0.808  0.402-  41 2.57  36 2.62  58 2.64  64 2.64  55 2.64  80 2.68   5 2.68  60 2.69
                            81 2.87   9 2.98   7 2.98
  60  0.196  0.801  0.603-  37 2.58  81 2.59  61 2.60  65 2.61  32 2.63   7 2.63  59 2.69   8 2.70

  61  0.202  0.805  0.804-  42 2.57  62 2.59  82 2.60  60 2.60  57 2.61  38 2.65  56 2.68   6 2.74

  62  0.401  0.004  0.001-   3 2.51  63 2.53  65 2.59  61 2.59  66 2.59  83 2.61  39 2.66  11 2.75
                             2 2.97
  63  0.390  0.994  0.186-  57 2.49  62 2.53   2 2.60  84 2.60  40 2.62  12 2.63  79 2.68   9 2.71
                            39 2.90   3 3.01
  64  0.407  0.005  0.607-  89 2.52  81 2.52  68 2.60  65 2.61  86 2.62  59 2.64   7 2.69   9 2.69
                           123 3.07
  65  0.398  0.001  0.801-  82 2.54  62 2.59  87 2.60  64 2.61  60 2.61  69 2.62  42 2.64 123 2.72
                             7 3.05
  66  0.391  0.198  0.998-  42 2.54  43 2.55   2 2.56  70 2.59  62 2.59  69 2.61  13 2.64  87 2.67
                             3 3.01
  67  0.391  0.204  0.394-  45 2.51  72 2.57  40 2.60   2 2.61  12 2.64  91 2.66  68 2.70   9 2.73
                            44 2.89  14 2.96
  68  0.398  0.198  0.600-  46 2.59  88 2.60  64 2.60  73 2.63  92 2.63  69 2.65  41 2.65  67 2.70
                             7 2.98   9 3.04
  69  0.404  0.205  0.806-  90 2.53  74 2.60  89 2.61  66 2.61  65 2.62  47 2.63  68 2.65   7 2.67

  70  0.400  0.399  1.000-  75 2.50  66 2.59  94 2.61  47 2.62  48 2.62  90 2.62  74 2.62  71 2.66
                            13 2.99
  71  0.396  0.398  0.201-  49 2.56   2 2.59  72 2.60  76 2.61  43 2.61  95 2.66  70 2.66  13 2.69
                            14 2.96
  72  0.394  0.403  0.400-  50 2.51  77 2.57  67 2.57  44 2.59  71 2.60  96 2.60  14 2.62  73 2.63

  73  0.402  0.401  0.603-  91 2.55  51 2.56  97 2.60  74 2.61  68 2.63  72 2.63  45 2.67  10 2.82

  74  0.403  0.401  0.802-  78 2.55  92 2.58  69 2.60  93 2.60  46 2.61  73 2.61  70 2.62  52 2.62

  75  0.394  0.588  1.000-  70 2.50  52 2.53  76 2.55  53 2.60  93 2.62  78 2.64  99 2.66  11 2.67
                            94 2.91  48 2.92
  76  0.401  0.598  0.199-  75 2.55 100 2.58  94 2.59  54 2.59  77 2.61  71 2.61  79 2.61  48 2.61

  77  0.402  0.602  0.400-  80 2.55  72 2.57  95 2.58  76 2.61  49 2.61 101 2.62  55 2.65  10 2.81

  78  0.396  0.594  0.801-  98 2.55  74 2.55  51 2.58  10 2.62  56 2.63  75 2.64  97 2.69  82 2.77
                            11 2.90   8 3.03
  79  0.399  0.797  0.199-  85 2.52  53 2.58  80 2.60  76 2.61  99 2.65  58 2.65  63 2.68  11 2.71
                             9 3.03
  80  0.401  0.796  0.398-  81 2.55  77 2.55  54 2.58  79 2.60 100 2.61  86 2.62   9 2.66  59 2.68

  81  0.388  0.800  0.588-  64 2.52  80 2.55  55 2.57  60 2.59 123 2.60  10 2.63  82 2.66 101 2.77
                            59 2.87   8 3.01
  82  0.396  0.804  0.795-  65 2.54  61 2.60  11 2.63   8 2.63  81 2.66  83 2.69  98 2.71  78 2.77
                           123 2.82  10 2.84
  83  0.603  0.005  0.006-  98 2.52  84 2.54 107 2.55  87 2.60  62 2.61 123 2.62  82 2.69 102 2.71
                             3 2.93  11 2.96  15 3.04
  84  0.597  0.008  0.199-   3 2.51  83 2.54  63 2.60  11 2.62  85 2.64  99 2.70 124 2.75 103 2.76
                            12 2.94
  85  0.600  0.982  0.391- 100 2.45  79 2.52 104 2.59  84 2.64  86 2.67   9 2.74  16 2.76  12 2.77
                            99 2.88 124 3.21
  86  0.601  0.997  0.600- 101 2.58  64 2.62  80 2.62 108 2.62 105 2.63  85 2.67  88 2.69 123 2.70
                            16 2.92
  87  0.596  0.200  0.001-   3 2.54  65 2.60  83 2.60  89 2.61 110 2.62  66 2.67  90 2.67  15 2.71
                            13 2.94
  88  0.604  0.209  0.617-   4 2.49  89 2.51  91 2.57  68 2.60  16 2.66  86 2.69   9 2.75  12 2.76
                            92 2.88
  89  0.598  0.197  0.802-  88 2.51  64 2.52 109 2.54  69 2.61  87 2.61 108 2.64  92 2.66 123 2.84
                            15 3.00
  90  0.599  0.403  0.994-  92 2.52  69 2.53 114 2.57 109 2.61  70 2.62  13 2.65  93 2.65  87 2.67

  91  0.596  0.399  0.605-  73 2.55  92 2.55  96 2.56  88 2.57 112 2.59 117 2.63  67 2.66  14 2.69
                             4 3.02
  92  0.599  0.401  0.801-  90 2.52  91 2.55  74 2.58  97 2.59 113 2.59   4 2.63  68 2.63  89 2.66
                            88 2.88 109 2.89
  93  0.598  0.607  0.997-  97 2.57 119 2.59  74 2.60  94 2.60  75 2.62 113 2.64  90 2.65
  94  0.599  0.605  0.196-  99 2.57 114 2.58 120 2.58  76 2.59  93 2.60  70 2.61  95 2.65  13 2.70
                            75 2.91
  95  0.600  0.607  0.398- 100 2.48  77 2.58 121 2.60  96 2.63  94 2.65  71 2.66 115 2.68  14 2.68

  96  0.605  0.594  0.595- 116 2.42  10 2.56  91 2.56 122 2.59  72 2.60  95 2.63  97 2.68 101 2.69
                            14 2.86
  97  0.603  0.599  0.801- 117 2.56  93 2.57  92 2.59  73 2.60  98 2.62 118 2.66  96 2.68  78 2.69
                            10 2.79 122 2.87
  98  0.602  0.801  0.929-  83 2.52  78 2.55 118 2.55 102 2.59  97 2.62  82 2.71  11 2.92
  99  0.599  0.800  0.192-  94 2.57 104 2.59 119 2.62  79 2.65  75 2.66  84 2.70 100 2.70  11 2.87
                            85 2.88
 100  0.599  0.797  0.396-  85 2.45  95 2.48  76 2.58 105 2.60  80 2.61 120 2.62 101 2.66  99 2.70

 101  0.603  0.801  0.602- 121 2.57  86 2.58  77 2.62 106 2.63 100 2.66  96 2.69  10 2.73  81 2.77
                           123 2.87 122 2.91
 102  0.805  0.998  0.001- 103 2.54  17 2.54  98 2.59  22 2.59 106 2.60 118 2.61  15 2.66  83 2.71
                           122 2.86   1 2.95 123 2.99
 103  0.801  0.996  0.192- 102 2.54 119 2.57   1 2.58 107 2.64 104 2.69  23 2.70  84 2.76 124 3.20

 104  0.801  0.990  0.395- 120 2.50  18 2.55  99 2.59  85 2.59 103 2.69 105 2.69  24 2.70 124 2.81

 105  0.799  0.991  0.599- 121 2.51  19 2.54 100 2.60 106 2.61  16 2.62  86 2.63  25 2.66 104 2.69

 106  0.805  0.001  0.803-  20 2.54 122 2.56  21 2.59 102 2.60 105 2.61 108 2.62 101 2.63 123 2.64
                            15 3.00
 107  0.803  0.200  0.196-  83 2.55  28 2.55  15 2.60 110 2.63  22 2.64 103 2.64 124 2.71   3 2.72

 108  0.800  0.199  0.802-  16 2.50  15 2.56  26 2.61 106 2.62  86 2.62  89 2.64   4 2.64  25 2.65
                           123 3.18
 109  0.794  0.400  0.987-   4 2.46  89 2.54 113 2.57  90 2.61 110 2.67  26 2.68   5 2.68  15 2.70
                            92 2.89
 110  0.805  0.401  0.194- 111 2.50  32 2.60  87 2.62 107 2.63  27 2.63 114 2.67 109 2.67  13 2.69
                            15 2.97   5 2.97
 111  0.788  0.399  0.378- 110 2.50 115 2.54   3 2.54  14 2.68   6 2.69 124 2.71  28 2.74  13 2.81

 112  0.799  0.408  0.614-   4 2.48  33 2.58  91 2.59 116 2.65  16 2.77  12 2.82  29 2.85 117 2.88
                             6 2.98 124 3.13
 113  0.798  0.602  0.998- 118 2.54 109 2.57 117 2.57  92 2.59 114 2.60  93 2.64  35 2.64  31 2.65
                             5 3.01   4 3.02
 114  0.793  0.600  0.194- 119 2.57  90 2.57  94 2.58 113 2.60  36 2.60 115 2.66 110 2.67   5 2.68
                            13 2.99
 115  0.805  0.606  0.402- 111 2.54 120 2.57  32 2.59  37 2.60 114 2.66  95 2.68  13 2.70 116 2.74
                             6 2.95
 116  0.798  0.609  0.610-  96 2.42 121 2.53 117 2.56  38 2.56   6 2.63 112 2.65  14 2.73 115 2.74

 117  0.800  0.602  0.803- 116 2.56  97 2.56 113 2.57  34 2.59  33 2.62   4 2.62  91 2.63 122 2.65
                           112 2.88
 118  0.808  0.801  0.005-   1 2.53 113 2.54  98 2.55  34 2.55 119 2.56 122 2.57 102 2.61  97 2.66
                            35 2.86
 119  0.800  0.800  0.196- 118 2.56  18 2.57 114 2.57 103 2.57  35 2.58  93 2.59  99 2.62 120 2.63
                             1 3.01
 120  0.799  0.798  0.396- 104 2.50 115 2.57  94 2.58  36 2.61  19 2.61 100 2.62 119 2.63 121 2.71

 121  0.799  0.800  0.603- 105 2.51 116 2.53 101 2.57  20 2.59  95 2.60  37 2.63 122 2.68 120 2.71

 122  0.784  0.799  0.802- 106 2.56 118 2.57  96 2.59 117 2.65  17 2.68 121 2.68  38 2.79 102 2.86
                            97 2.87 101 2.91
 123  0.595  0.977  0.796-  81 2.60  83 2.62 106 2.64  86 2.70  65 2.72  15 2.75  82 2.82  89 2.84
                           101 2.87 102 2.99  64 3.07 108 3.18
 124  0.812  0.213  0.410-  29 2.68 111 2.71 107 2.71  23 2.73  84 2.75  16 2.76  12 2.80 104 2.81
                            28 2.96  24 3.08 112 3.13   3 3.19 103 3.20  85 3.21
 
  LATTYP: Found a triclinic cell.
 ALAT       =    13.1213514486
 B/A-ratio  =     1.6340986829
 C/A-ratio  =     1.9098641834
 COS(alpha) =     0.0001373337
 COS(beta)  =     0.5223382268
 COS(gamma) =     0.8168369773
  
  Lattice vectors:
  
 A1 = (  -7.5784932810,  -7.5673202570,   7.5810268140)
 A2 = ( -15.1698261740,   0.0039430650,  15.1531463720)
 A3 = (  -7.5128275220, -22.6970494610,  -7.5103213480)


Analysis of symmetry for initial positions (statically):
=====================================================================
 Subroutine PRICEL returns:
 Original cell was already a primitive cell.
 

 Routine SETGRP: Setting up the symmetry group for a 
 triclinic supercell.


 Subroutine GETGRP returns: Found  1 space group operations
 (whereof  1 operations were pure point group operations)
 out of a pool of  2 trial point group operations.


The static configuration has the point symmetry C_1 .


Analysis of symmetry for dynamics (positions and initial velocities):
=====================================================================
 Subroutine PRICEL returns:
 Original cell was already a primitive cell.
 

 Routine SETGRP: Setting up the symmetry group for a 
 triclinic supercell.


 Subroutine GETGRP returns: Found  1 space group operations
 (whereof  1 operations were pure point group operations)
 out of a pool of  2 trial point group operations.


The dynamic configuration has the point symmetry C_1 .


 Subroutine INISYM returns: Found  1 space group operations
 (whereof  1 operations are pure point group operations),
 and found     1 'primitive' translations


----------------------------------------------------------------------------------------

                                     Primitive cell                                     

  volume of cell :    1727.8235

  direct lattice vectors                    reciprocal lattice vectors
    -7.591332893  7.571263322  7.572119558     0.000287796  0.066095611  0.066263809
     7.538506746 -7.580117697  7.528135860     0.066383288  0.000095404  0.066456334
     7.578493281  7.567320257 -7.581026814     0.066207605  0.066112690  0.000270385

  length of vectors
    13.125904083 13.075171042 13.121351449     0.093592761  0.093931860  0.093564993

  position of ions in fractional coordinates (direct lattice)
     0.999765340  0.999718838  0.196410322
     0.394208037  0.196743567  0.193786769
     0.593040879  0.196476594  0.192745517
     0.799621696  0.400488881  0.801029457
     0.998805699  0.602463070  0.195526286
     0.989026581  0.594755915  0.596917932
     0.198995320  0.001798181  0.599628970
     0.202537377  0.594080449  0.594581141
     0.400992394  0.000117120  0.398734119
     0.442415879  0.639294539  0.636290070
     0.410980757  0.796287053  0.997077670
     0.587805230  0.190565761  0.395700542
     0.599777087  0.398689164  0.194758578
     0.591984557  0.399663949  0.398607263
     0.801553576  0.199785629  0.997878395
     0.800315676  0.195497623  0.610246971
     0.999070553  0.998122945  0.002454392
     0.997153310  0.997649201  0.392857443
     0.994837613  0.998614847  0.599497627
     0.996804453  0.997440122  0.802004451
     0.006008588  0.198148966  0.000265566
     0.003662335  0.196679397  0.199120838
     0.010997263  0.198679851  0.397475378
     0.007906872  0.195601002  0.603294621
     0.001046240  0.198032809  0.801040585
     0.001751564  0.398345101  0.999846867
     0.008749112  0.401408677  0.202472358
     0.999380466  0.396509466  0.390095698
     0.018778849  0.408608268  0.621242262
     0.003794446  0.403523333  0.808726921
     0.996168204  0.596599028  0.992533526
     0.998916336  0.600039208  0.397512252
     0.001452078  0.604360573  0.807905573
     0.000515717  0.800736025  0.998708275
     0.999480304  0.807601479  0.197155088
     0.996255864  0.795966803  0.393109644
     0.001726119  0.807440630  0.602414852
     0.999032529  0.803090469  0.803491203
     0.200061042  0.004138557  0.004073558
     0.195669674  0.998536294  0.197353351
     0.194880294  0.998299341  0.392766049
     0.198284307  0.999937492  0.804610254
     0.197421204  0.199330023  0.999036231
     0.202370780  0.200913493  0.198763288
     0.198419387  0.197246699  0.395978717
     0.202490597  0.204059455  0.600096851
     0.199414676  0.198499969  0.799938670
     0.200168664  0.397036572  0.000878023
     0.201983786  0.400225178  0.200879766
     0.201782509  0.400518969  0.398355337
     0.203793887  0.393518939  0.601392902
     0.201703048  0.396806293  0.802518105
     0.200874208  0.598800063  0.002795366
     0.203641937  0.599350904  0.198624297
     0.195893154  0.599711642  0.389661872
     0.196717089  0.597094531  0.801377468
     0.198480734  0.800274861  0.000729153
     0.195745897  0.796120732  0.195618140
     0.202530176  0.807882773  0.402490857
     0.196460624  0.800726660  0.603010981
     0.202018155  0.804591936  0.804293822
     0.401372681  0.004077433  0.000601159
     0.390333574  0.994091548  0.186483804
     0.407014540  0.004915379  0.607119130
     0.398494046  0.000656858  0.801351800
     0.391025255  0.197979225  0.998341606
     0.391021906  0.203594210  0.394062648
     0.397779940  0.198003789  0.599810131
     0.403840700  0.204644197  0.805932961
     0.400025691  0.399228010  0.999970329
     0.396339393  0.397782956  0.200756894
     0.394145662  0.403294669  0.400149638
     0.401923433  0.401319595  0.602566227
     0.402843848  0.401314419  0.801629041
     0.394289201  0.588266051  0.999502934
     0.401020610  0.598175095  0.199495322
     0.401816888  0.602119064  0.399642385
     0.396112449  0.593975034  0.800826291
     0.399177337  0.796867288  0.199366625
     0.400990010  0.796319542  0.397700216
     0.387986376  0.800321306  0.588336759
     0.396379463  0.803893774  0.795101294
     0.602518684  0.005494403  0.006238748
     0.597038124  0.008070492  0.198983575
     0.600138173  0.981980607  0.390833787
     0.601015184  0.997176141  0.599567368
     0.596020472  0.200285120  0.001096404
     0.604372087  0.209015673  0.616704861
     0.598491480  0.197478666  0.801830071
     0.598848397  0.403146498  0.993996387
     0.595704478  0.398655999  0.604683530
     0.599161592  0.400605593  0.801016364
     0.598232205  0.607038853  0.997398339
     0.599088248  0.605265956  0.195518658
     0.599655781  0.607315142  0.398184342
     0.604543968  0.594076183  0.595306617
     0.602960719  0.599486781  0.800536488
     0.602397845  0.801135903  0.929240668
     0.599274337  0.800305044  0.191835759
     0.599379142  0.796543095  0.396311112
     0.603193761  0.801404387  0.601580299
     0.804738348  0.998171725  0.000551445
     0.800537847  0.995590541  0.191769423
     0.801195781  0.989507329  0.394560780
     0.799241772  0.991076458  0.599434956
     0.805371598  0.001310608  0.803301778
     0.802997017  0.200079453  0.196313080
     0.799840504  0.199080812  0.801981773
     0.794204479  0.400154755  0.986515523
     0.805037070  0.400712244  0.193690538
     0.788088629  0.399009177  0.377675305
     0.799392534  0.408119179  0.614481729
     0.797575004  0.601649134  0.997976909
     0.793117136  0.600362010  0.193961133
     0.804934624  0.605917681  0.402470788
     0.798161654  0.609078626  0.609672308
     0.799514600  0.601669847  0.802520904
     0.808459807  0.801449642  0.004783799
     0.800104224  0.800127187  0.196440541
     0.799193924  0.797892272  0.395700140
     0.799101231  0.800175642  0.602725873
     0.784484634  0.798829152  0.801555775
     0.594896411  0.977376091  0.795846907
     0.812391078  0.212780467  0.409907881

  ion indices of the primitive-cell ions
   primitive index   ion index
                 1           1
                 2           2
                 3           3
                 4           4
                 5           5
                 6           6
                 7           7
                 8           8
                 9           9
                10          10
                11          11
                12          12
                13          13
                14          14
                15          15
                16          16
                17          17
                18          18
                19          19
                20          20
                21          21
                22          22
                23          23
                24          24
                25          25
                26          26
                27          27
                28          28
                29          29
                30          30
                31          31
                32          32
                33          33
                34          34
                35          35
                36          36
                37          37
                38          38
                39          39
                40          40
                41          41
                42          42
                43          43
                44          44
                45          45
                46          46
                47          47
                48          48
                49          49
                50          50
                51          51
                52          52
                53          53
                54          54
                55          55
                56          56
                57          57
                58          58
                59          59
                60          60
                61          61
                62          62
                63          63
                64          64
                65          65
                66          66
                67          67
                68          68
                69          69
                70          70
                71          71
                72          72
                73          73
                74          74
                75          75
                76          76
                77          77
                78          78
                79          79
                80          80
                81          81
                82          82
                83          83
                84          84
                85          85
                86          86
                87          87
                88          88
                89          89
                90          90
                91          91
                92          92
                93          93
                94          94
                95          95
                96          96
                97          97
                98          98
                99          99
               100         100
               101         101
               102         102
               103         103
               104         104
               105         105
               106         106
               107         107
               108         108
               109         109
               110         110
               111         111
               112         112
               113         113
               114         114
               115         115
               116         116
               117         117
               118         118
               119         119
               120         120
               121         121
               122         122
               123         123
               124         124

----------------------------------------------------------------------------------------

 
 
 KPOINTS: KPOINTS generated by db_to_vasp         

Automatic generation of k-mesh.
 Grid dimensions read from file:
 generate k-points for:    4    4    4

 Generating k-lattice:

  Cartesian coordinates                     Fractional coordinates (reciprocal lattice)
     0.000071949  0.016523903  0.016565952     0.250000000  0.000000000 -0.000000000
     0.016595822  0.000023851  0.016614084    -0.000000000  0.250000000 -0.000000000
     0.016551901  0.016528173  0.000067596     0.000000000 -0.000000000  0.250000000

  Length of vectors
     0.023398190  0.023482965  0.023391248

  Shift w.r.t. Gamma in fractional coordinates (k-lattice)
     0.000000000  0.000000000  0.000000000

 
 Subroutine IBZKPT returns following result:
 ===========================================
 
 Found     36 irreducible k-points:
 
 Following reciprocal coordinates:
            Coordinates               Weight
  0.000000  0.000000  0.000000      1.000000
  0.250000  0.000000  0.000000      2.000000
  0.500000  0.000000  0.000000      1.000000
  0.000000  0.250000  0.000000      2.000000
  0.250000  0.250000  0.000000      2.000000
  0.500000  0.250000  0.000000      2.000000
 -0.250000  0.250000  0.000000      2.000000
  0.000000  0.500000  0.000000      1.000000
  0.250000  0.500000  0.000000      2.000000
  0.500000  0.500000  0.000000      1.000000
  0.000000  0.000000  0.250000      2.000000
  0.250000  0.000000  0.250000      2.000000
  0.500000  0.000000  0.250000      2.000000
 -0.250000  0.000000  0.250000      2.000000
  0.000000  0.250000  0.250000      2.000000
  0.250000  0.250000  0.250000      2.000000
  0.500000  0.250000  0.250000      2.000000
 -0.250000  0.250000  0.250000      2.000000
  0.000000  0.500000  0.250000      2.000000
  0.250000  0.500000  0.250000      2.000000
  0.500000  0.500000  0.250000      2.000000
 -0.250000  0.500000  0.250000      2.000000
  0.000000 -0.250000  0.250000      2.000000
  0.250000 -0.250000  0.250000      2.000000
  0.500000 -0.250000  0.250000      2.000000
 -0.250000 -0.250000  0.250000      2.000000
  0.000000  0.000000  0.500000      1.000000
  0.250000  0.000000  0.500000      2.000000
  0.500000  0.000000  0.500000      1.000000
  0.000000  0.250000  0.500000      2.000000
  0.250000  0.250000  0.500000      2.000000
  0.500000  0.250000  0.500000      2.000000
 -0.250000  0.250000  0.500000      2.000000
  0.000000  0.500000  0.500000      1.000000
  0.250000  0.500000  0.500000      2.000000
  0.500000  0.500000  0.500000      1.000000
 
 Following cartesian coordinates:
            Coordinates               Weight
  0.000000  0.000000  0.000000      1.000000
  0.000072  0.016524  0.016566      2.000000
  0.000144  0.033048  0.033132      1.000000
  0.016596  0.000024  0.016614      2.000000
  0.016668  0.016548  0.033180      2.000000
  0.016740  0.033072  0.049746      2.000000
  0.016524 -0.016500  0.000048      2.000000
  0.033192  0.000048  0.033228      1.000000
  0.033264  0.016572  0.049794      2.000000
  0.033336  0.033096  0.066360      1.000000
  0.016552  0.016528  0.000068      2.000000
  0.016624  0.033052  0.016634      2.000000
  0.016696  0.049576  0.033200      2.000000
  0.016480  0.000004 -0.016498      2.000000
  0.033148  0.016552  0.016682      2.000000
  0.033220  0.033076  0.033248      2.000000
  0.033292  0.049600  0.049814      2.000000
  0.033076  0.000028  0.000116      2.000000
  0.049744  0.016576  0.033296      2.000000
  0.049815  0.033100  0.049862      2.000000
  0.049887  0.049624  0.066428      2.000000
  0.049672  0.000052  0.016730      2.000000
 -0.000044  0.016504 -0.016546      2.000000
  0.000028  0.033028  0.000019      2.000000
  0.000100  0.049552  0.016585      2.000000
 -0.000116 -0.000020 -0.033112      2.000000
  0.033104  0.033056  0.000135      1.000000
  0.033176  0.049580  0.016701      2.000000
  0.033248  0.066104  0.033267      1.000000
  0.049700  0.033080  0.016749      2.000000
  0.049772  0.049604  0.033315      2.000000
  0.049844  0.066128  0.049881      2.000000
  0.049628  0.016556  0.000183      2.000000
  0.066295  0.033104  0.033363      1.000000
  0.066367  0.049628  0.049929      2.000000
  0.066439  0.066152  0.066495      1.000000
 


--------------------------------------------------------------------------------------------------------




 Dimension of arrays:
   k-points           NKPTS =     36   k-points in BZ     NKDIM =     36   number of bands    NBANDS=    816
   number of dos      NEDOS =    301   number of ions     NIONS =    124
   non local maximal  LDIM  =      6   non local SUM 2l+1 LMDIM =     18
   total plane-waves  NPLWV = 941192
   max r-space proj   IRMAX =      1   max aug-charges    IRDMAX=  31289
   dimension x,y,z NGX =    98 NGY =   98 NGZ =   98
   dimension x,y,z NGXF=   196 NGYF=  196 NGZF=  196
   support grid    NGXF=   196 NGYF=  196 NGZF=  196
   ions per type =               4  12 106   1   1
   NGX,Y,Z   is equivalent  to a cutoff of  12.41, 12.46, 12.42 a.u.
   NGXF,Y,Z  is equivalent  to a cutoff of  24.82, 24.92, 24.83 a.u.

 SYSTEM =  unknown system                          
 POSCAR =  Cr Ti V  W  Zr                          

 Startparameter for this run:
   NWRITE =      2    write-flag & timer
   PREC   = accura    normal or accurate (medium, high low for compatibility)
   ISTART =      0    job   : 0-new  1-cont  2-samecut
   ICHARG =      2    charge: 1-file 2-atom 10-const
   ISPIN  =      1    spin polarized calculation?
   LNONCOLLINEAR =      F non collinear calculations
   LSORBIT =      F    spin-orbit coupling
   INIWAV =      1    electr: 0-lowe 1-rand  2-diag
   LASPH  =      F    aspherical Exc in radial PAW
 Electronic Relaxation 1
   ENCUT  =  520.0 eV  38.22 Ry    6.18 a.u.  24.41 24.31 24.40*2*pi/ulx,y,z
   ENINI  =  520.0     initial cutoff
   ENAUG  =  598.5 eV  augmentation charge cutoff
   NELM   =    100;   NELMIN=  2; NELMDL= -5     # of ELM steps 
   EDIFF  = 0.1E-05   stopping-criterion for ELM
   LREAL  =      F    real-space projection
   NLSPLINE    = F    spline interpolate recip. space projectors
   LCOMPAT=      F    compatible to vasp.4.4
   GGA_COMPAT  = T    GGA compatible to vasp.4.4-vasp.4.6
   LMAXPAW     = -100 max onsite density
   LMAXMIX     =    2 max onsite mixed and CHGCAR
   VOSKOWN=      0    Vosko Wilk Nusair interpolation
   ROPT   =    0.00000   0.00000   0.00000   0.00000
   ROPT   =    0.00000
 Ionic relaxation
   EDIFFG = -.1E-01   stopping-criterion for IOM
   NSW    =     -1    number of steps for IOM
   NBLOCK =      1;   KBLOCK =      1    inner block; outer block 
   IBRION =      2    ionic relax: 0-MD 1-quasi-New 2-CG
   NFREE  =      1    steps in history (QN), initial steepest desc. (CG)
   ISIF   =      2    stress and relaxation
   IWAVPR =     11    prediction:  0-non 1-charg 2-wave 3-comb
   ISYM   =      2    0-nonsym 1-usesym 2-fastsym
   LCORR  =      T    Harris-Foulkes like correction to forces

   POTIM  = 0.2000    time-step for ionic-motion
   TEIN   =    0.0    initial temperature
   TEBEG  =    0.0;   TEEND  =   0.0 temperature during run
   SMASS  =  -3.00    Nose mass-parameter (am)
   estimated Nose-frequenzy (Omega)   =  0.10E-29 period in steps = 0.31E+47 mass=  -0.394E-26a.u.
   SCALEE = 1.0000    scale energy and forces
   NPACO  =    256;   APACO  = 10.0  distance and # of slots for P.C.
   PSTRESS=    0.0 pullay stress

  Mass of Ions in am
   POMASS =  52.00 47.88 50.94183.85 91.22
  Ionic Valenz
   ZVAL   =  12.00 10.00 11.00 14.00 12.00
  Atomic Wigner-Seitz radii
   RWIGS  =  -1.00 -1.00 -1.00 -1.00 -1.00
  virtual crystal weights 
   VCA    =   1.00  1.00  1.00  1.00  1.00
   NELECT =    1360.0000    total number of electrons
   NUPDOWN=      -1.0000    fix difference up-down

 DOS related values:
   EMIN   =  10.00;   EMAX   =-10.00  energy-range for DOS
   EFERMI =   0.00;   METHOD = LEGACY      
   ISMEAR =     1;   SIGMA  =   0.20  broadening in eV -4-tet -1-fermi 0-gaus

 Electronic relaxation 2 (details)
   IALGO  =     38    algorithm
   LDIAG  =      T    sub-space diagonalisation (order eigenvalues)
   LSUBROT=      F    optimize rotation matrix (better conditioning)
   TURBO    =      0    0=normal 1=particle mesh
   IRESTART =      0    0=no restart 2=restart with 2 vectors
   NREBOOT  =      0    no. of reboots
   NMIN     =      0    reboot dimension
   EREF     =   0.00    reference energy to select bands
   IMIX   =      4    mixing-type and parameters
     AMIX     =   0.40;   BMIX     =  1.00
     AMIX_MAG =   1.60;   BMIX_MAG =  1.00
     AMIN     =   0.10
     WC   =   100.;   INIMIX=   1;  MIXPRE=   1;  MAXMIX= -45

 Intra band minimization:
   WEIMIN = 0.0010     energy-eigenvalue tresh-hold
   EBREAK =  0.31E-09  absolut break condition
   DEPER  =   0.30     relativ break condition  

   TIME   =   0.40     timestep for ELM

  volume/ion in A,a.u.               =      13.93        94.03
  Fermi-wavevector in a.u.,A,eV,Ry     =   1.511546  2.856408 31.086197  2.284771
  Thomas-Fermi vector in A             =   2.621589
 
 Write flags
   LWAVE        =      F    write WAVECAR
   LDOWNSAMPLE  =      F    k-point downsampling of WAVECAR
   LCHARG       =      T    write CHGCAR
   LVTOT        =      F    write LOCPOT, total local potential
   LVHAR        =      F    write LOCPOT, Hartree potential only
   LELF         =      F    write electronic localiz. function (ELF)
   LORBIT       =     11    0 simple, 1 ext, 2 COOP (PROOUT), +10 PAW based schemes


 Dipole corrections
   LMONO  =      F    monopole corrections only (constant potential shift)
   LDIPOL =      F    correct potential (dipole corrections)
   IDIPOL =      0    1-x, 2-y, 3-z, 4-all directions 
   EPSILON=  1.0000000 bulk dielectric constant

 Exchange correlation treatment:
   GGA     =    PE    GGA type
   LEXCH   =     8    internal setting for exchange type
   LIBXC   =     F    Libxc                    
   VOSKOWN =     0    Vosko Wilk Nusair interpolation
   LHFCALC =     F    Hartree Fock is set to
   LHFONE  =     F    Hartree Fock one center treatment
   AEXX    =    0.0000 exact exchange contribution

 Linear response parameters
   LEPSILON=     F    determine dielectric tensor
   LRPA    =     F    only Hartree local field effects (RPA)
   LNABLA  =     F    use nabla operator in PAW spheres
   LVEL    =     F    velocity operator in full k-point grid
   CSHIFT  =0.1000    complex shift for real part using Kramers Kronig
   OMEGAMAX=  -1.0    maximum frequency
   DEG_THRESHOLD= 0.2000000E-02 threshold for treating states as degnerate
   RTIME   =   -0.100 relaxation time in fs
  (WPLASMAI=    0.000 imaginary part of plasma frequency in eV, 0.658/RTIME)
   DFIELD  = 0.0000000 0.0000000 0.0000000 field for delta impulse in time
 
  Optional k-point grid parameters
   LKPOINTS_OPT  =     F    use optional k-point grid
   KPOINTS_OPT_MODE=     1    mode for optional k-point grid
 
 Orbital magnetization related:
   ORBITALMAG=     F  switch on orbital magnetization
   LCHIMAG   =     F  perturbation theory with respect to B field
   DQ        =  0.001000  dq finite difference perturbation B field
   LLRAUG    =     F  two centre corrections for induced B field
   LBONE     =     F  B-component reconstruction in AE one-centre
   LVGVCALC  =     T  calculate vGv susceptibility
   LVGVAPPL  =     F  apply vGv susceptibility instead of pGv for G=0

 Random number generation:
   RANDOM_GENERATOR = DEFAULT
   PCG_SEED         = not used


--------------------------------------------------------------------------------------------------------


 conjugate gradient relaxation of ions
 charge density and potential will be updated during run
 non-spin polarized calculation
 Variant of blocked Davidson
 Davidson routine will perform the subspace rotation
 perform sub-space diagonalisation
    after iterative eigenvector-optimisation
 modified Broyden-mixing scheme, WC =      100.0
 initial mixing is a Kerker type mixing with AMIX =  0.4000 and BMIX =      1.0000
 Hartree-type preconditioning will be used
 using additional bands           136
 reciprocal scheme for non local part
 use partial core corrections
 calculate Harris-corrections to forces 
   (improved forces if not selfconsistent)
 use gradient corrections 
 use of overlap-Matrix (Vanderbilt PP)
 Methfessel and Paxton  Order N= 1 SIGMA  =   0.20


--------------------------------------------------------------------------------------------------------


  energy-cutoff  :      520.00
  volume of cell :     1727.82
      direct lattice vectors                 reciprocal lattice vectors
    -7.591332893  7.571263322  7.572119558     0.000287796  0.066095611  0.066263809
     7.538506746 -7.580117697  7.528135860     0.066383288  0.000095404  0.066456334
     7.578493281  7.567320257 -7.581026814     0.066207605  0.066112690  0.000270385

  length of vectors
    13.125904083 13.075171042 13.121351449     0.093592761  0.093931860  0.093564993


 
 k-points in units of 2pi/SCALE and weight: KPOINTS generated by db_to_vasp         
   0.00000000  0.00000000  0.00000000       0.016
   0.00007195  0.01652390  0.01656595       0.031
   0.00014390  0.03304781  0.03313190       0.016
   0.01659582  0.00002385  0.01661408       0.031
   0.01666777  0.01654775  0.03318004       0.031
   0.01673972  0.03307166  0.04974599       0.031
   0.01652387 -0.01650005  0.00004813       0.031
   0.03319164  0.00004770  0.03322817       0.016
   0.03326359  0.01657160  0.04979412       0.031
   0.03333554  0.03309551  0.06636007       0.016
   0.01655190  0.01652817  0.00006760       0.031
   0.01662385  0.03305208  0.01663355       0.031
   0.01669580  0.04957598  0.03319950       0.031
   0.01647995  0.00000427 -0.01649836       0.031
   0.03314772  0.01655202  0.01668168       0.031
   0.03321967  0.03307593  0.03324763       0.031
   0.03329162  0.04959983  0.04981358       0.031
   0.03307577  0.00002812  0.00011573       0.031
   0.04974355  0.01657587  0.03329576       0.031
   0.04981549  0.03309978  0.04986172       0.031
   0.04988744  0.04962368  0.06642767       0.031
   0.04967160  0.00005197  0.01672981       0.031
  -0.00004392  0.01650432 -0.01654649       0.031
   0.00002803  0.03302822  0.00001946       0.031
   0.00009998  0.04955213  0.01658542       0.031
  -0.00011587 -0.00001958 -0.03311244       0.031
   0.03310380  0.03305635  0.00013519       0.016
   0.03317575  0.04958025  0.01670114       0.031
   0.03324770  0.06610415  0.03326710       0.016
   0.04969962  0.03308020  0.01674928       0.031
   0.04977157  0.04960410  0.03331523       0.031
   0.04984352  0.06612800  0.04988118       0.031
   0.04962768  0.01655629  0.00018332       0.031
   0.06629545  0.03310405  0.03336336       0.016
   0.06636740  0.04962795  0.04992931       0.031
   0.06643934  0.06615185  0.06649526       0.016
 
 k-points in reciprocal lattice and weights: KPOINTS generated by db_to_vasp         
   0.00000000  0.00000000  0.00000000       0.016
   0.25000000  0.00000000  0.00000000       0.031
   0.50000000  0.00000000  0.00000000       0.016
   0.00000000  0.25000000  0.00000000       0.031
   0.25000000  0.25000000  0.00000000       0.031
   0.50000000  0.25000000  0.00000000       0.031
  -0.25000000  0.25000000  0.00000000       0.031
   0.00000000  0.50000000  0.00000000       0.016
   0.25000000  0.50000000  0.00000000       0.031
   0.50000000  0.50000000  0.00000000       0.016
   0.00000000  0.00000000  0.25000000       0.031
   0.25000000  0.00000000  0.25000000       0.031
   0.50000000  0.00000000  0.25000000       0.031
  -0.25000000  0.00000000  0.25000000       0.031
   0.00000000  0.25000000  0.25000000       0.031
   0.25000000  0.25000000  0.25000000       0.031
   0.50000000  0.25000000  0.25000000       0.031
  -0.25000000  0.25000000  0.25000000       0.031
   0.00000000  0.50000000  0.25000000       0.031
   0.25000000  0.50000000  0.25000000       0.031
   0.50000000  0.50000000  0.25000000       0.031
  -0.25000000  0.50000000  0.25000000       0.031
   0.00000000 -0.25000000  0.25000000       0.031
   0.25000000 -0.25000000  0.25000000       0.031
   0.50000000 -0.25000000  0.25000000       0.031
  -0.25000000 -0.25000000  0.25000000       0.031
   0.00000000  0.00000000  0.50000000       0.016
   0.25000000  0.00000000  0.50000000       0.031
   0.50000000  0.00000000  0.50000000       0.016
   0.00000000  0.25000000  0.50000000       0.031
   0.25000000  0.25000000  0.50000000       0.031
   0.50000000  0.25000000  0.50000000       0.031
  -0.25000000  0.25000000  0.50000000       0.031
   0.00000000  0.50000000  0.50000000       0.016
   0.25000000  0.50000000  0.50000000       0.031
   0.50000000  0.50000000  0.50000000       0.016
 
 position of ions in fractional coordinates (direct lattice) 
   0.99976534  0.99971884  0.19641032
   0.39420804  0.19674357  0.19378677
   0.59304088  0.19647659  0.19274552
   0.79962170  0.40048888  0.80102946
   0.99880570  0.60246307  0.19552629
   0.98902658  0.59475592  0.59691793
   0.19899532  0.00179818  0.59962897
   0.20253738  0.59408045  0.59458114
   0.40099239  0.00011712  0.39873412
   0.44241588  0.63929454  0.63629007
   0.41098076  0.79628705  0.99707767
   0.58780523  0.19056576  0.39570054
   0.59977709  0.39868916  0.19475858
   0.59198456  0.39966395  0.39860726
   0.80155358  0.19978563  0.99787840
   0.80031568  0.19549762  0.61024697
   0.99907055  0.99812295  0.00245439
   0.99715331  0.99764920  0.39285744
   0.99483761  0.99861485  0.59949763
   0.99680445  0.99744012  0.80200445
   0.00600859  0.19814897  0.00026557
   0.00366233  0.19667940  0.19912084
   0.01099726  0.19867985  0.39747538
   0.00790687  0.19560100  0.60329462
   0.00104624  0.19803281  0.80104058
   0.00175156  0.39834510  0.99984687
   0.00874911  0.40140868  0.20247236
   0.99938047  0.39650947  0.39009570
   0.01877885  0.40860827  0.62124226
   0.00379445  0.40352333  0.80872692
   0.99616820  0.59659903  0.99253353
   0.99891634  0.60003921  0.39751225
   0.00145208  0.60436057  0.80790557
   0.00051572  0.80073602  0.99870827
   0.99948030  0.80760148  0.19715509
   0.99625586  0.79596680  0.39310964
   0.00172612  0.80744063  0.60241485
   0.99903253  0.80309047  0.80349120
   0.20006104  0.00413856  0.00407356
   0.19566967  0.99853629  0.19735335
   0.19488029  0.99829934  0.39276605
   0.19828431  0.99993749  0.80461025
   0.19742120  0.19933002  0.99903623
   0.20237078  0.20091349  0.19876329
   0.19841939  0.19724670  0.39597872
   0.20249060  0.20405946  0.60009685
   0.19941468  0.19849997  0.79993867
   0.20016866  0.39703657  0.00087802
   0.20198379  0.40022518  0.20087977
   0.20178251  0.40051897  0.39835534
   0.20379389  0.39351894  0.60139290
   0.20170305  0.39680629  0.80251811
   0.20087421  0.59880006  0.00279537
   0.20364194  0.59935090  0.19862430
   0.19589315  0.59971164  0.38966187
   0.19671709  0.59709453  0.80137747
   0.19848073  0.80027486  0.00072915
   0.19574590  0.79612073  0.19561814
   0.20253018  0.80788277  0.40249086
   0.19646062  0.80072666  0.60301098
   0.20201815  0.80459194  0.80429382
   0.40137268  0.00407743  0.00060116
   0.39033357  0.99409155  0.18648380
   0.40701454  0.00491538  0.60711913
   0.39849405  0.00065686  0.80135180
   0.39102525  0.19797923  0.99834161
   0.39102191  0.20359421  0.39406265
   0.39777994  0.19800379  0.59981013
   0.40384070  0.20464420  0.80593296
   0.40002569  0.39922801  0.99997033
   0.39633939  0.39778296  0.20075689
   0.39414566  0.40329467  0.40014964
   0.40192343  0.40131960  0.60256623
   0.40284385  0.40131442  0.80162904
   0.39428920  0.58826605  0.99950293
   0.40102061  0.59817509  0.19949532
   0.40181689  0.60211906  0.39964238
   0.39611245  0.59397503  0.80082629
   0.39917734  0.79686729  0.19936662
   0.40099001  0.79631954  0.39770022
   0.38798638  0.80032131  0.58833676
   0.39637946  0.80389377  0.79510129
   0.60251868  0.00549440  0.00623875
   0.59703812  0.00807049  0.19898357
   0.60013817  0.98198061  0.39083379
   0.60101518  0.99717614  0.59956737
   0.59602047  0.20028512  0.00109640
   0.60437209  0.20901567  0.61670486
   0.59849148  0.19747867  0.80183007
   0.59884840  0.40314650  0.99399639
   0.59570448  0.39865600  0.60468353
   0.59916159  0.40060559  0.80101636
   0.59823221  0.60703885  0.99739834
   0.59908825  0.60526596  0.19551866
   0.59965578  0.60731514  0.39818434
   0.60454397  0.59407618  0.59530662
[...]
   0.172E+02 -.830E+02 0.380E+02   -.169E+02 0.831E+02 -.384E+02   -.219E+00 -.109E+00 0.392E+00   0.361E-02 0.222E-02 0.609E-03
   0.275E+02 -.544E+02 0.730E+02   -.269E+02 0.547E+02 -.730E+02   -.520E+00 -.314E+00 -.266E-01   0.156E-02 0.234E-02 0.224E-02
   0.168E+03 -.346E+01 -.178E+02   -.169E+03 0.388E+01 0.181E+02   0.543E+00 -.409E+00 -.379E+00   0.115E-02 -.273E-02 0.419E-02
   0.324E+02 0.623E+02 -.319E+02   -.327E+02 -.620E+02 0.320E+02   0.267E+00 -.222E+00 -.116E+00   0.295E-02 -.104E-02 0.392E-02
   -.180E+02 0.124E+03 0.842E+02   0.180E+02 -.124E+03 -.838E+02   -.112E-01 -.241E+00 -.396E+00   0.436E-02 -.934E-02 -.320E-02
   -.419E+02 0.698E+02 0.585E+02   0.421E+02 -.687E+02 -.590E+02   -.196E+00 -.116E+01 0.550E+00   -.739E-03 -.126E-02 -.260E-03
   0.730E+01 -.248E+02 0.171E+02   -.725E+01 0.254E+02 -.173E+02   -.577E-01 -.585E+00 0.249E+00   -.177E-02 0.404E-02 -.244E-03
   0.453E+02 -.813E+01 0.302E+02   -.456E+02 0.841E+01 -.300E+02   0.273E+00 -.290E+00 -.158E+00   0.473E-03 0.174E-02 -.841E-03
   -.344E+02 0.123E+03 0.813E+02   0.334E+02 -.122E+03 -.807E+02   0.931E+00 -.102E+01 -.639E+00   0.248E-02 -.471E-02 -.176E-02
   0.740E+02 -.859E+02 0.823E+02   -.735E+02 0.852E+02 -.818E+02   -.549E+00 0.809E+00 -.497E+00   -.702E-02 0.490E-02 -.105E-01
   -.102E+03 -.114E+00 0.497E+02   0.101E+03 0.268E-01 -.495E+02   0.810E+00 0.779E-01 -.134E+00   0.165E-04 0.264E-03 0.400E-02
 -----------------------------------------------------------------------------------------------
   -.103E+00 -.364E+00 -.348E+00   0.540E-12 0.136E-11 0.347E-11   0.106E+00 0.361E+00 0.356E+00   0.227E-02 0.108E-02 -.528E-02
 
 
 POSITION                                       TOTAL-FORCE (eV/Angst)
 -----------------------------------------------------------------------------------
      1.43533      1.47780     13.60737         0.008234     -0.017433      0.009536
     -0.04080      2.95976      2.99700        -0.003001      0.005436      0.004540
     -1.56011      4.45932      4.50847        -0.003796      0.005193     -0.007431
      3.01949      9.08004      2.99714        -0.003285      0.002286     -0.003831
     -1.55880      4.47509     10.61621        -0.005281     -0.004922      0.001098
      1.49928      7.49693      7.44118        -0.009085      0.004633      0.002464
      3.04720      6.03060     -3.02545        -0.006899     -0.006022     -0.005243
      7.44698      1.52965      1.49842         0.004352      0.004513      0.026363
     -0.02138      6.05248      0.01443         0.002778     -0.003594     -0.003556
      6.28292      3.31873      3.33899         0.054816      0.051372      0.043899
     10.43927      4.62090      1.54768         0.056133     -0.089403     -0.066599
     -0.02683      6.00031      2.88572        -0.004518      0.001870     -0.012146
     -0.07161      2.99276      6.06650        -0.002444      0.000280     -0.001467
      1.53976      4.46896      4.46945        -0.001480      0.008631      0.005197
      2.98364     12.10564      0.00853        -0.012957      0.009811      0.003977
      0.02305      9.19544      2.90552         0.000669      0.004107     -0.003781
     -0.04132      0.01691     15.06048         0.012359     -0.010793      0.007890
      2.92833      2.96029     12.08274        -0.003025      0.003912      0.005966
      4.51921      4.49915     10.50593        -0.002970      0.000248      0.004507
      6.03012      6.05538      8.97677        -0.005318     -0.000561      0.002771
      1.45015     -1.45449      1.53518         0.003302      0.011763     -0.001251
      2.96390      0.04369     -0.00118         0.004708      0.002074      0.007098
      4.42653      1.58507     -1.43431         0.010932      0.004628      0.008518
      5.98658      3.14251     -3.04121        -0.001637     -0.000333      0.004173
      7.55561      4.56854     -4.57397        -0.001854      0.004270      0.008832
     10.56696      4.55992     -4.56781        -0.004539      0.002785      0.002862
      4.49404     -1.44431      1.55316         0.000184      0.002752      0.001509
     -1.64120      7.51296      7.59508         0.007670      0.003062      0.005185
      7.64582      1.74602     -1.49140        -0.000951      0.004927      0.007473
      9.14209      3.08987     -3.06447        -0.001111      0.003016     -0.000716
      4.45713     10.53078      4.50996        -0.001981     -0.004341     -0.002936
     -0.04716      6.02279      9.06754         0.000224     -0.008401      0.002317
     10.66766      1.54355     -1.56405         0.001434     -0.008721     -0.009620
     13.60114      1.49178     -1.53928         0.011495     -0.016143     -0.004490
     -0.00514      2.93755     12.15328         0.007565     -0.004124     -0.003772
      1.41667      4.48418     10.55574        -0.007552     -0.010524      0.004421
     10.63919     -1.54876      1.52467        -0.007910     -0.003408     -0.003390
      4.55937      7.55669      7.51928        -0.001371     -0.003428     -0.001802
     -1.45666      1.51417      1.51516         0.004401     -0.002489     -0.003288
      7.53772     -4.59412      7.50261         0.001471     -0.005495      0.000896
      9.02286     -3.11955      6.01342         0.002211     -0.004210      0.001828
     12.13053      0.01036      2.92933        -0.002246     -0.007553     -0.005661
      7.57515      7.54381     -4.57824         0.000304      0.001516      0.005033
      1.48465      1.51336      1.53805         0.006294      0.006107      0.007227
      2.98160      3.00363     -0.01457         0.007644      0.005181      0.012590
      4.54896      4.52744     -1.47988        -0.000365      0.004263      0.006674
      6.04490      6.05856     -3.06003         0.000863     -0.002186      0.002968
      1.48017     -1.48741      4.49799        -0.002735      0.000460      0.008389
      3.00614      0.01564      3.01952        -0.003687      0.000598      0.002078
      4.50645      1.50625      1.52314         0.009558      0.001058      0.005852
      5.97713      3.11099     -0.05356        -0.001103     -0.002637      0.007737
      7.54201      4.59222     -1.56938         0.009994      0.009383      0.007288
      3.01034     -2.99695      6.00770        -0.003902      0.003436      0.003238
      4.47757     -1.49827      4.54822        -0.005826     -0.002267      0.001090
      5.98689     -0.11403      3.04400        -0.005378     -0.006382     -0.000950
      9.08109      3.02763     -0.09069        -0.005024     -0.018718     -0.010517
      4.53167     -4.55791      7.52197         0.010299     -0.011901     -0.009179
      5.99808     -3.07234      5.99253         0.002655     -0.003799     -0.004438
      7.60303     -1.54466      4.56414        -0.001182     -0.010157     -0.001688
      9.11480     -0.01897      2.94416         0.000989     -0.000666     -0.006676
     10.62717      1.51698      1.48941        -0.003526      0.001721      0.000608
     -3.01166      3.01254      3.06538         0.005850     -0.013426      0.003514
      5.94408     -3.16883      9.02557        -0.004159      0.005347      0.006072
      1.54832      7.63862     -1.48362         0.004231      0.005666     -0.002243
      3.05289      9.07621     -3.05268        -0.005172     -0.011141     -0.004750
      6.08999      9.01462     -3.11715        -0.000453      0.002211     -0.001324
      1.55282      4.39926      1.50615        -0.000129      0.001106      0.003216
      3.01863      6.04976     -0.04454        -0.001063     -0.002538     -0.003165
      4.58478      7.60511     -1.51128        -0.004197     -0.003261     -0.009351
      7.55112      7.56960     -1.54632         0.002575     -0.006734     -0.001183
      1.51138      1.50474      4.47375        -0.000396     -0.000581      0.003112
      3.08068      2.95522      2.98703        -0.001571      0.000542      0.004560
      4.54076      4.56083      1.49653         0.001793      0.005215      0.016370
      6.04233      6.07421     -0.00564        -0.014799      0.004512     -0.001039
      9.01619      6.08970     -0.16311        -0.007413      0.007015      0.053513
      2.97694      0.01164      6.02734        -0.013405     -0.011609      0.007379
      4.51744      1.50235      4.54574        -0.002452     -0.002348     -0.002298
      7.53972      4.55678      1.39985        -0.025518     -0.020492     -0.004507
      4.48780     -1.50940      7.51014         0.005466     -0.003239     -0.002747
      5.97298      0.00933      6.01617        -0.006653     -0.004153      0.003571
      7.54660      1.32315      4.50261        -0.016019     -0.015747     -0.001310
      9.07678      2.92427      3.02557        -0.011785      0.009702      0.034959
     -4.48522      4.56739      4.55641         0.000619     -0.023225      0.024259
     -2.96348      5.96493      3.07310        -0.052505      0.007194      0.005196
      5.80875      0.05784      8.97388         0.001653     -0.009273      0.008257
      7.49853      1.52885      7.51250         0.001227     -0.006184     -0.000446
     -3.00643      3.00274      6.01260        -0.009929     -0.000377      0.003305
      1.66137      7.65830      1.47462         0.004417     -0.004952     -0.002256
      3.02201      9.10213     -0.06020        -0.008920      0.004072     -0.008112
      6.02606      9.00003      0.03398        -0.008597      0.009141     -0.004653
      3.06567      6.06421      2.92776         0.004481      0.002914      0.003808
      4.54203      7.56132      1.48021        -0.006888      0.002672     -0.002829
      7.59356      7.47558      1.53845        -0.075150      0.050158     -0.040634
      1.49666      1.42742      7.61066        -0.006879     -0.002094      0.004297
      3.04370      2.94982      6.09397        -0.005559     -0.005310      0.001353
      4.40068      4.57887      4.53693        -0.015981     -0.012714      0.005778
      6.00882      6.07891      3.00982        -0.004039     -0.002715      0.007489
      8.50861      5.52007      3.54789         0.260925      0.254270     -0.302529
      2.93764     -0.07746      9.10827         0.015943      0.003078     -0.011540
      4.45810      1.49918      7.53061        -0.004583     -0.007161      0.004634
      6.02142      3.04455      6.03994        -0.018589     -0.020036      0.018746
      1.41987     -1.46920     13.60377        -0.020284     -0.026269      0.008675
      2.88144     -0.03443     12.10290         0.020236      0.028906      0.057484
      4.36744      1.55125     10.52472        -0.001191      0.004727      0.009268
      5.94674      3.07491      8.96858        -0.008569     -0.005362      0.008585
     -0.01615     12.16659      0.01838        -0.019215     -0.008731      0.033708
     -3.09976      6.04864      6.09836        -0.008186      0.006901      0.009683
      1.50673     10.61560      1.47535        -0.000741     -0.000680      0.000752
      4.46380     10.44519      1.54743        -0.010872      0.001597     -0.006237
     -1.62265      4.52342      7.64408        -0.001695      0.000488      0.001702
     -0.11250      5.80028      6.10813        -0.003353     -0.004760      0.006308
      1.66500      7.60880      4.46707        -0.001238      0.002470     -0.003996
      6.04404      9.03009      3.00294        -0.004971     -0.005486     -0.001857
     -0.02505      2.92185      9.05476         0.001815      0.002133      0.010273
      1.50731      4.54707      7.60535         0.000220     -0.002643      0.001429
      3.15283      6.03979      6.00706        -0.001877      0.003775      0.004441
      4.54821      7.56554      4.49954        -0.005032     -0.008126      0.000159
     -0.05930      0.08218     12.11891        -0.018214     -0.004008      0.016909
      1.44663      1.47927     10.59273         0.003056     -0.044546      0.001808
      2.94678      2.99718      9.05842        -0.004684     -0.004758      0.008603
      4.53364      4.54580      7.50544        -0.008878     -0.003693      0.003688
      6.14128      5.94995      5.87729         0.027221     -0.044545     -0.024587
      8.88322      3.11792      5.82911        -0.034883      0.031976     -0.026275
     -1.45660      7.63983      4.64584         0.009359     -0.009552     -0.006663
 -----------------------------------------------------------------------------------
    total drift:                                0.004447     -0.001789      0.003146


--------------------------------------------------------------------------------------------------------



  FREE ENERGIE OF THE ION-ELECTRON SYSTEM (eV)
  ---------------------------------------------------
  free  energy   TOTEN  =     -1096.77989601 eV

  energy  without entropy=    -1096.73276644  energy(sigma->0) =    -1096.76418615
 


--------------------------------------------------------------------------------------------------------


    POTLOK:  cpu time      0.2294: real time      0.1193


--------------------------------------------------------------------------------------------------------




--------------------------------------------------------------------------------------------------------


     LOOP+:  cpu time   3795.1353: real time   3793.0721
    4ORBIT:  cpu time      0.0000: real time      0.0000



 total charge

# of ion       s       p       d       tot
------------------------------------------
    1        0.424   6.330   4.204  10.958
    2        0.414   6.312   4.188  10.914
    3        0.414   6.306   4.200  10.920
    4        0.423   6.315   4.224  10.962
    5        0.362   6.294   2.115   8.772
    6        0.350   6.271   2.093   8.714
    7        0.361   6.290   2.127   8.778
    8        0.354   6.275   2.100   8.729
    9        0.356   6.282   2.100   8.738
   10        0.338   6.248   2.091   8.677
   11        0.351   6.278   2.082   8.711
   12        0.354   6.268   2.108   8.730
   13        0.364   6.297   2.119   8.779
   14        0.359   6.279   2.121   8.759
   15        0.361   6.301   2.143   8.804
   16        0.359   6.275   2.155   8.789
   17        0.358   6.244   3.053   9.656
   18        0.352   6.233   3.047   9.633
   19        0.356   6.227   3.077   9.660
   20        0.356   6.232   3.069   9.657
   21        0.358   6.236   3.067   9.661
   22        0.356   6.238   3.051   9.645
   23        0.354   6.222   3.086   9.662
   24        0.352   6.225   3.053   9.630
   25        0.354   6.238   3.035   9.627
   26        0.351   6.230   3.048   9.630
   27        0.359   6.225   3.092   9.675
   28        0.350   6.220   3.048   9.617
   29        0.355   6.206   3.111   9.672
   30        0.354   6.227   3.063   9.645
   31        0.356   6.234   3.066   9.657
   32        0.351   6.219   3.060   9.630
   33        0.357   6.231   3.081   9.669
   34        0.359   6.234   3.089   9.682
   35        0.359   6.236   3.069   9.664
   36        0.351   6.228   3.041   9.620
   37        0.352   6.227   3.054   9.632
   38        0.350   6.230   3.035   9.616
   39        0.358   6.245   3.048   9.650
   40        0.356   6.238   3.061   9.654
   41        0.356   6.225   3.084   9.664
   42        0.356   6.232   3.066   9.654
   43        0.360   6.236   3.093   9.690
   44        0.358   6.242   3.050   9.650
   45        0.358   6.238   3.077   9.674
   46        0.358   6.230   3.085   9.673
   47        0.354   6.235   3.043   9.631
   48        0.356   6.241   3.053   9.650
   49        0.360   6.239   3.071   9.670
   50        0.348   6.227   3.023   9.598
   51        0.358   6.219   3.106   9.683
   52        0.358   6.237   3.058   9.653
   53        0.354   6.230   3.067   9.651
   54        0.357   6.228   3.079   9.664
   55        0.356   6.223   3.084   9.663
   56        0.354   6.221   3.089   9.664
   57        0.353   6.227   3.066   9.645
   58        0.353   6.230   3.037   9.619
   59        0.350   6.227   3.034   9.612
   60        0.352   6.219   3.061   9.632
   61        0.349   6.220   3.050   9.619
   62        0.356   6.235   3.060   9.651
   63        0.354   6.220   3.084   9.659
   64        0.352   6.222   3.088   9.663
   65        0.353   6.234   3.063   9.650
   66        0.356   6.233   3.074   9.663
   67        0.354   6.227   3.052   9.633
   68        0.349   6.230   3.033   9.613
   69        0.354   6.230   3.056   9.640
   70        0.356   6.235   3.065   9.657
   71        0.353   6.233   3.040   9.626
   72        0.358   6.222   3.107   9.686
   73        0.349   6.228   3.037   9.615
   74        0.358   6.237   3.062   9.657
   75        0.365   6.229   3.095   9.689
   76        0.358   6.234   3.074   9.666
   77        0.351   6.227   3.047   9.626
   78        0.364   6.234   3.043   9.641
   79        0.352   6.228   3.052   9.632
   80        0.356   6.228   3.072   9.656
   81        0.367   6.236   3.090   9.693
   82        0.362   6.233   3.040   9.635
   83        0.366   6.240   3.079   9.685
   84        0.356   6.214   3.071   9.642
   85        0.353   6.217   3.077   9.647
   86        0.349   6.232   3.035   9.616
   87        0.347   6.226   3.039   9.613
   88        0.356   6.224   3.065   9.645
   89        0.353   6.230   3.079   9.662
   90        0.357   6.232   3.072   9.661
   91        0.357   6.227   3.083   9.666
   92        0.360   6.243   3.061   9.663
   93        0.345   6.225   3.023   9.593
   94        0.356   6.232   3.061   9.650
   95        0.353   6.228   3.059   9.640
   96        0.372   6.230   3.111   9.713
   97        0.368   6.241   3.047   9.656
   98        0.336   6.187   3.025   9.548
   99        0.345   6.215   3.009   9.569
  100        0.361   6.234   3.096   9.691
  101        0.356   6.225   3.025   9.606
  102        0.365   6.236   3.064   9.665
  103        0.339   6.219   2.998   9.556
  104        0.352   6.222   3.065   9.639
  105        0.355   6.229   3.076   9.660
  106        0.366   6.235   3.095   9.696
  107        0.352   6.222   3.074   9.649
  108        0.352   6.223   3.090   9.666
  109        0.355   6.231   3.059   9.645
  110        0.352   6.220   3.061   9.633
  111        0.356   6.209   3.078   9.642
  112        0.341   6.214   3.001   9.556
  113        0.357   6.238   3.065   9.660
  114        0.353   6.224   3.064   9.642
  115        0.350   6.224   3.046   9.620
  116        0.356   6.217   3.116   9.689
  117        0.356   6.241   3.050   9.647
  118        0.375   6.249   3.082   9.706
  119        0.361   6.228   3.091   9.680
  120        0.355   6.231   3.069   9.655
  121        0.357   6.233   3.071   9.660
  122        0.336   6.217   2.995   9.548
  123        2.424   6.245   3.350  12.019
  124        2.259   5.964   1.909  10.131
--------------------------------------------------
tot         48.260 773.084 372.0711193.415
 

 total amount of memory used by VASP MPI-rank0  7324551. kBytes
=======================================================================

   base      :      30000. kBytes
   nonl-proj :    1299768. kBytes
   fftplans  :      67629. kBytes
   grid      :     189621. kBytes
   one-center:       1928. kBytes
   wavefun   :    5735605. kBytes
 
  
  
 General timing and accounting informations for this job:
 ========================================================
  
                  Total CPU time used (sec):     3919.132
                            User time (sec):     3214.388
                          System time (sec):      704.744
                         Elapsed time (sec):     3916.822
  
                   Maximum memory used (kb):     9625420.
                   Average memory used (kb):          N/A
  
                          Minor page faults:     14673445
                          Major page faults:           12
                 Voluntary context switches:       711682
