124
Lattice="13.002903728225448 -0.009255746979815498 0.02985436048510635 -4.3430024538978165 12.242781786512072 -0.02221962293537814 -4.3055893186509335 -6.127411939181864 10.626069933025846" Properties=species:S:1:pos:R:3:forces:R:3 energy=-1103.5564267406821 free_energy=-1103.5564267406821 stress="-0.0011260926537949097 0.0017526459413407152 -0.0021195765083382645 0.0017526459413407152 -0.0014529946976336318 0.001582366299669957 -0.0021195765083382645 0.001582366299669957 -0.0013563656816438755" pbc="T T T"
V        0.14000467       0.04721642      -0.01550654      -0.00391449       0.00109104      -0.00331467
V       -0.83017643      -1.18828244       2.11865477      -0.00147459       0.00116664      -0.00335931
V       11.28817452      -2.42455308       4.28424160      -0.00220476       0.00277778       0.00152692
V       -6.89762940       8.60271749       6.33441689      -0.00292208      -0.00163317      -0.00307697
V       -3.57566687      -4.72601799       8.46205991      -0.00272315       0.01222334       0.00490112
V       -1.66015173       1.23301979       2.09465651       0.00004325      -0.00259111       0.00063111
V       -2.54902624       0.02876414       4.22921623      -0.00315896      -0.00430753      -0.00034936
V       -3.39791474      -1.23176844       6.40764375       0.00305378      -0.00162605      -0.00574745
V       -2.57074329       3.65536498       2.07883715      -0.00105263      -0.00158871       0.00102256
V       -3.44238870       2.46928591       4.24819879       0.00260847      -0.00252881      -0.00364081
V       -4.26724675       1.19252847       6.34441106       0.00634902      -0.00030380      -0.00221335
V       -5.09617548      -0.05135798       8.57843217       0.00019628      -0.00916082      -0.00500302
V       -2.48682830       7.39994838      -0.02107523       0.00387584       0.00046320      -0.00121694
V       -3.47094612       6.12263393       2.11279103       0.00317296       0.00102507      -0.00459335
V       -4.31130327       4.87781176       4.24551228      -0.00216483      -0.00243698      -0.00522578
V       -5.24072269       3.67811550       6.45182887       0.00283867       0.00215440      -0.01239021
V       -3.63950708       9.75125166       0.08600025       0.01021310       0.00739643      -0.01046667
V        8.64115531       8.55243990       2.17456992       0.00116849       0.00530240      -0.01082653
V        7.81048406       7.34612423       4.25392314       0.00927139       0.00249610      -0.00537988
V       -6.00393139       6.20274200       6.25372901       0.00344737       0.00396732      -0.00943362
V       -7.22191586       5.16928156       8.05823308      -0.01527647       0.01356869      -0.01730187
V        2.60692763      -1.81265578      -1.01391847       0.00080447      -0.01095479       0.00182347
V        1.81951182      -1.18177682       2.01777646       0.00104579      -0.00334984       0.01222122
V       -3.48122022       9.82420100       4.21217618       0.00173586       0.00348036      -0.00072988
V        0.00565583      -3.66983635       6.41496185       0.00012722       0.00450601      -0.00279568
V       -0.92676396      -4.96818404       8.61706192       0.00026020       0.00807766      -0.01153956
V        1.75090220       2.36957490       0.05474723      -0.00155847       0.00767280       0.00375434
V        0.85453966       1.23567274       2.18165599      -0.00059614      -0.00195602       0.00408702
V        0.01841504       0.00747575       4.23509178      -0.00313393       0.00281630       0.00008904
V       -0.84404127      -1.20704857       6.38010180      -0.00259671       0.00787007      -0.00360579
V       -1.75648095      -2.48275731       8.54424963       0.00526437       0.00301368      -0.00582497
V        0.85632208       4.84508066      -0.00190796      -0.00508458      -0.00211926      -0.00564033
V        0.01807064       3.62649354       2.10217968      -0.00509004      -0.00164816       0.00780741
V       -0.87606617       2.44532677       4.25472221       0.00256945       0.00031088      -0.00466500
V       -1.73873472       1.24456002       6.38518775       0.00044184      -0.00111698      -0.00707541
V       -2.58322859       0.02509355       8.50435457       0.00560464       0.00267706      -0.00215486
V        0.11676081       7.21574672       0.07563686      -0.00199868      -0.01454456      -0.00675774
V       -0.87758983       6.04892552       2.09091872       0.00247769       0.00094930       0.00188195
V       -1.72459116       4.86664022       4.23040949      -0.00219413      -0.00490348      -0.00689086
V       -2.60516577       3.65541022       6.38160906      -0.00214716      -0.00585055      -0.00404033
V       -3.57214302       2.44996164       8.54442543       0.00019783      -0.00984976      -0.00138116
V       -4.78345945       3.43576074      11.06800353       0.03043258      -0.01696622       0.02924611
V       -1.77834172       8.51398762       2.20523918      -0.00083157      -0.00338782       0.00454655
V       -2.60374527       7.32376898       4.23747498      -0.00722246      -0.00112860       0.00112991
V       -3.42434879       6.13608410       6.33275910      -0.00213424      -0.00661817       0.01060863
V       -4.15568116       4.96097505       8.39950641      -0.01638828      -0.00731261       0.00760019
V        0.79084632      -6.15428788      10.65452907       0.00844403      -0.00201003       0.00448493
V        0.10047927      11.05436243       2.25291975       0.00843418       0.01399689       0.01485670
V       -0.88791753       9.79276809       4.23437964       0.00412443      -0.00313131       0.00115062
V       -1.84196029       8.56301488       6.31975023      -0.00031424       0.00139005       0.00837372
V        1.74687345      -4.89029915       8.55705534      -0.00324974       0.00325091       0.00541557
V        4.37842969       2.49916815       0.00642021      -0.00052739      -0.00002487       0.00127511
V        3.44455326       1.23353341       2.04969837       0.00422357       0.01182661       0.01503859
V        2.59203694       0.02999540       4.20300881      -0.00095102      -0.00119092       0.00767723
V        1.69797240      -1.20284120       6.37854172       0.00064089       0.00174600       0.00688816
V        0.80328196      -2.47600868       8.53109074       0.00122979       0.00562473       0.00566682
V        3.46247590       4.89135544       0.00744475       0.00531764       0.00633277      -0.00433754
V        2.60874212       3.66165696       2.11492609      -0.00243859      -0.00069866      -0.00141417
V        1.74302216       2.45560493       4.24917110      -0.00748527       0.00057767       0.00375519
V        0.85330169       1.24010693       6.38037955      -0.00495796       0.00228537      -0.00373315
V        0.00537263       0.00195643       8.51360661       0.00327244      -0.00135209       0.00084453
V        2.63945728       7.32639060      -0.00041041      -0.00269568       0.00033185       0.00327987
V        1.77722689       6.06360878       2.14407215      -0.00221431      -0.00914852      -0.00603190
V        0.85635548       4.85810588       4.24293596      -0.00104319       0.00200741      -0.00066435
V        0.00191462       3.66284125       6.36667282      -0.00257882      -0.00478513      -0.00457194
V       -0.87074646       2.44551050       8.49176904      -0.00334757      -0.00425021      -0.00125584
V       -2.42409122       3.66808252      10.61154213       0.01194069      -0.00015849      -0.00292731
V        0.96708453       8.49678709       2.21170054       0.01842694      -0.01072587       0.02275179
V       -0.00596066       7.26892427       4.23592931      -0.01220039      -0.00899110       0.01320167
V       -0.83288509       6.12998789       6.37618670      -0.01323479      -0.00650173       0.00524160
V       -1.65931401       4.90859138       8.49094141      -0.01273778       0.00237761      -0.00436913
V        3.45599955      12.25020468       0.00683518      -0.00213006       0.00250486       0.00152582
V        7.00548289      -1.19857733       2.13864664       0.00243437      -0.00794019       0.00541966
V        1.78475511       9.80156924       4.17562768       0.00401069       0.01627185       0.01918276
V        4.44228046      -4.92717723       8.63901488      -0.00546534       0.00531584       0.00198072
V        6.96110029       2.42138727       0.06179092      -0.00384359       0.00400933       0.00243839
V        6.06346432       1.24081693       2.10936657       0.01018542      -0.00031522       0.00471275
V        5.23377539       0.06338549       4.23789854       0.00764923       0.00691603       0.00929234
V        4.19273209      -1.09309379       6.20927699      -0.00789118       0.00200218       0.00081648
V        6.10406233       4.90229477       0.00322200      -0.00502630      -0.00114728       0.00319834
V        5.21274124       3.67623324       2.13000864       0.00685543       0.00578490      -0.00357384
V        4.34376072       2.46457443       4.23207962       0.00466951      -0.00149119      -0.00149367
V        3.49778320       1.28573014       6.40424023      -0.01145446       0.00676172      -0.00229107
V        2.54103044       0.10877029       8.52001805      -0.00158758      -0.00285609       0.00168701
V        5.20614657       7.34108751       0.00409256      -0.00158144      -0.00633927      -0.00511288
V        4.36786869       6.10655577       2.10692503      -0.00180527       0.00257319      -0.00001241
V        3.44657836       4.90378032       4.20240072       0.00011432      -0.01026021      -0.00771442
V        2.57352868       3.67364905       6.37215707      -0.00185075       0.00311964      -0.00666863
V        1.75625399       2.46151552       8.51845479      -0.00015247      -0.00408575      -0.00602959
V        4.35607083       9.79906854       0.01118230       0.00599636       0.00439312      -0.01003698
V        3.53111927       8.55857360       2.13931021       0.00951781       0.00451935      -0.00373000
V        2.60832996       7.34275551       4.26396608      -0.00064807      -0.00171600       0.00319041
V        1.72584967       6.10391227       6.38757126      -0.01334804      -0.00660302       0.00487986
V        0.87098112       4.88723933       8.51293287      -0.00592496      -0.00469804       0.00243101
V       10.44593326       0.05211017       0.04226331       0.00142444      -0.00031772      -0.00268597
V        9.57347119      -1.19858652       2.15640599      -0.00479082       0.00560698      -0.00145881
V        8.71595264      -2.41271098       4.28938515      -0.00715935      -0.00348172       0.00355717
V        7.86310442      -3.68232225       6.44452922      -0.00099025       0.01346373       0.01028915
V        8.73504922       1.26693857       2.09852175       0.00069577       0.00045265       0.00559226
V        7.86592532       0.04985511       4.22040597       0.01203407      -0.00452477      -0.00046697
V        8.76710190       4.88111654       0.10450162       0.00198279      -0.00741958       0.00055418
V        7.81602132       3.68086787       2.15283783       0.00232552      -0.00258093      -0.00781650
V        6.97421216       2.46627842       4.28143668       0.00741325       0.00549496      -0.00164288
V        6.15695337       1.38172632       6.40875880       0.00802849       0.00158418       0.02117531
V        7.84955712       7.34878278      -0.00661310       0.00296732      -0.00311529      -0.00207849
V        6.95055161       6.10821953       2.12433619       0.00067871      -0.00497541      -0.00429894
V        6.09801446       4.91070309       4.22011969      -0.00309586       0.00611005      -0.00440917
V        5.12124063       3.70840590       6.22750135      -0.00076145      -0.00681687      -0.01457279
V        4.43786878       2.58042526       8.50263012       0.00165386      -0.00287059      -0.00787321
V        6.88904245       9.81225757       0.02875480       0.00992384       0.00014483      -0.00527972
V        6.07213355       8.57163458       2.14275171       0.00903335       0.00365993      -0.00895002
V        5.20927293       7.37185539       4.22368413       0.00566810       0.00496039      -0.00645406
V        4.27769386       6.18249819       6.28310255      -0.01514388       0.01063773      -0.01820440
V        3.36833530       4.98149768       8.52866051      -0.00586459       0.00021278      -0.00839445
Cr      -0.81668482       2.42675052       0.03797397      -0.00139661      -0.00140624       0.00575956
Cr      -4.23728811      -2.45056195       8.55430132      -0.00152598       0.00100049      -0.00092889
Cr      -1.68011795       4.91470196       0.06498369       0.00068490      -0.00944125       0.00288504
Cr       2.63178557       7.29800413       8.55802707      -0.00419689       0.00177711      -0.00070768
Cr       9.56891138       2.40864365       0.11390394      -0.00023268      -0.00015478      -0.00115571
Ti       5.16818909      -3.63687511       6.39621689      -0.00244977       0.00059740       0.00187042
Ti       3.44357426      -2.42773415       8.52099159       0.00283162       0.00376235      -0.00368554
Ti       6.94149255      -1.18148362       6.38532772      -0.00715033       0.00689908       0.00739538
Ti       6.23651374      -2.55071569       8.72393493      -0.00329509      -0.00697298       0.00014269
Ti       5.17658711      -0.00867256       8.49992011      -0.00542616      -0.00490798       0.01091800
