124
Lattice="13.002903728225448 -0.009255746979815498 0.02985436048510635 -4.3430024538978165 12.242781786512072 -0.02221962293537814 -4.3055893186509335 -6.127411939181864 10.626069933025846" Properties=species:S:1:pos:R:3:forces:R:3 energy=-1107.4556260771108 free_energy=-1107.4556260771108 stress="0.0034310687587477706 0.0005337377940676261 -9.71968536183293e-05 0.0005337377940676261 0.004016201082647075 0.0008866854789710878 -9.71968536183293e-05 0.0008866854789710878 0.004629841132632221" pbc="T T T"
V        0.09508848       0.08101026       0.03554299      -0.04203079       0.01960063       0.05947814
V       -0.83812554      -1.19801836       2.11837153      -0.01740074      -0.01557745      -0.00516549
V       11.28460192      -2.42704877       4.28604759      -0.00932213      -0.00606827      -0.01281556
V       -6.89457709       8.59444743       6.32894370      -0.00865019      -0.02628142       0.00748797
V       -3.56370929      -4.76900649       8.45290037       0.04754751      -0.11023306       0.00907966
V       -1.66709723       1.23534386       2.10057670      -0.00998258       0.00242448       0.01314762
V       -2.56201907       0.03236550       4.24124589      -0.02531744      -0.00122591       0.01618236
V       -3.40659702      -1.22078585       6.41248797      -0.01425409       0.00667899       0.00062183
V       -2.56905630       3.66503678       2.07866949       0.01379249       0.01654415      -0.00014007
V       -3.44205242       2.46729103       4.25652912      -0.00034069      -0.00206347       0.00714298
V       -4.30156677       1.24677789       6.39762461      -0.06554312       0.08070413       0.09277073
V       -5.08383408      -0.00630402       8.62812193       0.01377858       0.06260105       0.07659252
V       -2.53986508       7.40573783       0.06915046      -0.04767683       0.04424693       0.10546896
V       -3.47198210       6.13729972       2.12356151       0.00772129       0.01745051       0.01975000
V       -4.31252275       4.89312025       4.25229902      -0.00972369       0.03092496       0.00624894
V       -5.19646990       3.75062646       6.41383193       0.05047928       0.09714145      -0.03140062
V       -3.53235022       9.82374189       0.04227957       0.16638168       0.06426546      -0.08979541
V        8.65744204       8.57749784       2.16857794       0.01988519       0.04728696      -0.01344817
V        7.80460124       7.34613379       4.25967719      -0.00546394      -0.00099181      -0.00030701
V       -6.04874088       6.17946093       6.33796423      -0.06412173      -0.02571686       0.16189771
V       -6.98450222       5.18777288       8.50939699       0.43445097      -0.24483908       0.61959950
V        2.60789281      -3.18735321      -1.81500629       0.00188467      -1.67901714      -0.97876947
V        1.77272338      -1.14918129       2.05725975      -0.05559769       0.02761414       0.03977153
V       -3.48417116       9.81310559       4.22526124       0.00008136      -0.01614907       0.01517598
V        0.00068206      -3.66671038       6.40277260      -0.01481273       0.00594832      -0.02425230
V       -0.88418190      -4.92067072       8.62259978       0.04660077       0.04638383      -0.00129770
V        1.75984199       2.32500885       0.04045322       0.01017612      -0.05480362      -0.01489349
V        0.85243763       1.25506427       2.19637728      -0.01171215       0.01702010       0.02417780
V        0.01445100       0.00623717       4.24239522      -0.00547471       0.00046663       0.01049879
V       -0.84826288      -1.20247510       6.38370182      -0.01035506       0.01103719      -0.00670744
V       -1.76801661      -2.48202536       8.54514182      -0.02482860       0.00931160      -0.00877191
V        0.85226966       4.85288867      -0.00235213      -0.00088536       0.00601891       0.00696790
V        0.02725312       3.62741440       2.09490128       0.01809831       0.00310329       0.00306803
V       -0.87285902       2.45493578       4.25723628       0.00265553       0.02233215       0.00395834
V       -1.74696230       1.24809258       6.38244299      -0.00506877       0.00219891      -0.00528764
V       -2.58393918       0.02444752       8.52048123       0.01615286       0.00778639       0.03002684
V        0.05252192       7.37081765       0.05890082      -0.07050552       0.14982006      -0.03012474
V       -0.86544547       6.06082095       2.07656111       0.01745254       0.02688342      -0.01100289
V       -1.72288979       4.87011674       4.23078473      -0.00094931       0.00779145       0.01056770
V       -2.58864539       3.68469939       6.38461873       0.02025498       0.03606667       0.00265767
V       -3.46097896       2.49838202       8.55557275       0.12749779       0.06851876       0.03159284
V       -5.06582341       3.82116736      10.84845484      -0.48572842       0.36397058      -0.55189241
V       -1.73427720       8.56936698       2.16479427       0.06629314       0.12502694      -0.07325952
V       -2.60081032       7.32655678       4.23884601       0.00088132       0.00187192       0.00060609
V       -3.44410081       6.14258264       6.35587998      -0.02571115       0.00584512       0.04433951
V       -4.23734535       4.95447079       8.47571997      -0.12205873      -0.05534338       0.08900038
V        0.82906980      -6.09342272      10.65010016       0.04456982       0.05381075      -0.00873794
V        0.09432447      11.00363887       2.21486564      -0.04339420      -0.07416302      -0.12320645
V       -0.89159671       9.78037658       4.23106380       0.00872764      -0.00440205      -0.03281081
V       -1.84236432       8.55887739       6.31323865      -0.00432280      -0.02261932       0.00013877
V        1.75442671      -4.89345269       8.54724690       0.01230714      -0.00052718      -0.01150674
V        4.38279824       2.52294453       0.01335049       0.00182635       0.02841122       0.00547137
V        3.43614725       1.19192343       2.01013036      -0.00158912      -0.05401012      -0.04261194
V        2.59511631       0.02426969       4.20298548       0.01088245      -0.00899572       0.00358239
V        1.69846987      -1.19889476       6.38201620       0.00494902       0.00471367       0.00825363
V        0.80504755      -2.47090779       8.52597326      -0.00166557       0.00543237      -0.00301435
V        3.45415590       4.88860551       0.01025265      -0.01140768       0.00243952       0.01118655
V        2.61219366       3.65490689       2.11096677       0.00082229      -0.00210533      -0.00667427
V        1.75296355       2.45441356       4.24822708       0.01455294       0.01190405      -0.00431398
V        0.85911060       1.24614560       6.38458630       0.00629173       0.02452890       0.00388852
V       -0.00538475       0.00661432       8.51669019      -0.01631558       0.01247924       0.01617651
V        2.61669879       7.33459443       0.00745173      -0.03184208       0.02116835       0.02066302
V        1.76523239       6.07545695       2.12894386      -0.02002342       0.02943967      -0.02001404
V        0.86443761       4.86024446       4.23830578       0.01636411       0.02572782      -0.00261791
V        0.00430368       3.66514532       6.36678159      -0.01121278       0.01343326       0.00310709
V       -0.86658152       2.45898293       8.50273129       0.00242347       0.01624139       0.02520778
V       -2.50423984       3.67855385      10.64022841      -0.14589562       0.04103644       0.04423663
V        0.92823101       8.51199095       2.15283870      -0.08098244       0.06760168      -0.10492787
V        0.00106690       7.26980897       4.22317991       0.00866316       0.00183291      -0.02481279
V       -0.83226297       6.12338628       6.37317370      -0.00043964      -0.01035851       0.00253848
V       -1.67885687       4.91901131       8.51073590      -0.03819898       0.02419185       0.02640571
V        3.46867240      12.24577341       0.01135243       0.01844965      -0.01040210       0.00895663
V        7.01107958      -1.20654237       2.13079770      -0.01995663      -0.01516081      -0.00750515
V        1.78973568       9.79479273       4.16754048      -0.00271696      -0.01702533      -0.01995016
V        4.44727071      -4.92637211       8.63255707      -0.00134085       0.00417775      -0.01388911
V        6.97029012       2.42532041       0.06075355       0.00455663       0.00305721       0.00321097
V        6.06001929       1.23587116       2.11030813       0.00355401      -0.01005423       0.01879122
V        5.23054020       0.06038512       4.22598106       0.00661494       0.01152222       0.00008532
V        4.19429812      -1.08076108       6.20543011      -0.00675936       0.02499841      -0.00963477
V        6.10457744       4.90753511       0.00633294       0.00563740       0.00943067       0.01069723
V        5.20802795       3.67229832       2.13723273      -0.01729676       0.00615516       0.00801332
V        4.34634239       2.46986906       4.23768031       0.00029630       0.01624957      -0.00813030
V        3.50060469       1.29487213       6.39636312      -0.02069011       0.03006208      -0.01379388
V        2.54533822       0.10794508       8.52358477      -0.00492122       0.00542545       0.00935357
V        5.20326117       7.34142934       0.00666637       0.00815402       0.01304495       0.01546815
V        4.36371571       6.10434808       2.11226324      -0.01703700       0.02027932       0.02382825
V        3.46203159       4.89678697       4.21986203       0.02619998      -0.00340234       0.03036800
V        2.60237745       3.68040619       6.37353869       0.03778672       0.01786343      -0.00247743
V        1.75625763       2.47385396       8.52705374      -0.00586125       0.02514012       0.00677697
V        4.35196062       9.80027423       0.01694782      -0.00425129       0.00216430       0.00049401
V        3.51921334       8.55588074       2.13804002      -0.01945856      -0.00391995      -0.00162813
V        2.61003624       7.33803243       4.26144951      -0.00001036      -0.00707315       0.00731026
V        1.74157720       6.10219735       6.38771748       0.03053013      -0.00907872       0.01177726
V        0.86989641       4.88871358       8.51112806      -0.00611894      -0.00307351      -0.00531983
V       10.43370708       0.05477498       0.03590114      -0.01668495       0.00061389      -0.01944157
V        9.57120508      -1.19952542       2.15897568      -0.00145425      -0.00927803       0.00224643
V        8.71132363      -2.41219502       4.29717622      -0.01711199      -0.01422348       0.01868500
V        7.86751661      -3.68456871       6.44755080       0.00178342      -0.00676140       0.02041538
V        8.73487983       1.27278405       2.10134838       0.00194589       0.00620789       0.00747894
V        7.86938556       0.05174535       4.22830050       0.02094936      -0.00703540       0.00675767
V        8.76481399       4.88039141       0.09788230      -0.00090133      -0.01390374      -0.00110526
V        7.81076180       3.68461125       2.16778819      -0.01396630       0.01787240       0.02578040
V        6.96062210       2.47152559       4.28024137      -0.01312663       0.02695642      -0.01112618
V        6.11953412       1.42514785       6.37117704      -0.07019927       0.06956331      -0.05040415
V        7.83221564       7.36618309       0.01724239      -0.01635892       0.02510442       0.03229563
V        6.94926334       6.10946685       2.12876110       0.00237810       0.01850370       0.00301708
V        6.08747441       4.90986918       4.24999356      -0.01708700       0.01454929       0.04430653
V        5.19661009       3.76406214       6.38275656       0.08930914       0.04667224       0.16355894
V        4.35723159       2.61196703       8.54957834      -0.05939710       0.05801838       0.05077618
V        6.90788783       9.83294347       0.03249203       0.03000322       0.03145405       0.00819850
V        6.07626840       8.56715860       2.13892500       0.00770110      -0.00205187      -0.01028226
V        5.20640314       7.36451633       4.23321605      -0.00082282      -0.01384062       0.02116383
V        4.31697830       6.14225250       6.32008610       0.08873839      -0.05690068       0.10043162
V        3.43536368       5.00589083       8.53119941       0.12847327       0.05030972       0.01854270
Cr      -0.81694921       2.42965085       0.03312406      -0.00343854       0.00344481      -0.00193702
Cr      -4.23205371      -2.45052656       8.55994856       0.01436984       0.00860601       0.01749082
Cr      -1.66921296       4.92318195       0.07349910       0.01304649       0.00549256       0.02909885
Cr       2.63466270       7.29505700       8.55671223       0.03693675      -0.00710086      -0.00002259
Cr       9.57001153       2.41916536       0.11430521       0.00248201       0.01374809      -0.00040851
Ti       5.17643585      -3.63017495       6.39242070       0.01804378       0.00537361      -0.01754364
Ti       3.46097621      -2.41207450       8.50930833       0.02471761       0.02691679      -0.01913575
Ti       6.94046668      -1.15445697       6.39983390      -0.00391336       0.04901663       0.02803918
Ti       6.23991913      -2.53157876       8.72600961       0.01053638       0.01499210       0.00086013
Ti       5.22046969       0.07472975       8.51309789       0.07404676       0.12351188       0.02530685
