124
Lattice="13.002903728225448 -0.009255746979815498 0.02985436048510635 -4.3430024538978165 12.242781786512072 -0.02221962293537814 -4.3055893186509335 -6.127411939181864 10.626069933025846" Properties=species:S:1:pos:R:3:forces:R:3 energy=-1104.9064160133435 free_energy=-1104.9064160133435 stress="0.00012017106023529063 0.0010869792834954663 -0.001044281724770606 0.0010869792834954663 0.0008061954451801802 0.0016442618049052455 -0.001044281724770606 0.0016442618049052455 0.00035532555986711884" pbc="T T T"
V        0.07708095       0.02645568      -0.00657884      -0.18506566      -0.06532464       0.02187296
V       -0.83808287      -1.20117332       2.11682143      -0.02519833      -0.03514627      -0.00738433
V       11.28612527      -2.42500191       4.28360367      -0.01034396       0.00484495      -0.00290006
V       -6.90271769       8.59693910       6.34355208      -0.02036928      -0.02281566       0.01935321
V       -3.52784836      -4.82064229       8.47339514       0.13874401      -0.26699244       0.03937793
V       -1.65697147       1.23317659       2.09650848       0.01253202       0.00016408       0.00614612
V       -2.55091709       0.02634127       4.22961761      -0.00743255      -0.01493332      -0.00261331
V       -3.40042896      -1.23375540       6.41331157      -0.00591675      -0.01169553       0.00859788
V       -2.56796716       3.65154604       2.07747727       0.00882519      -0.01197833      -0.00395998
V       -3.44219045       2.46877659       4.24426060       0.00394808      -0.00586163      -0.01830297
V       -4.26979271       1.18454026       6.34056472       0.00035125      -0.01763828      -0.01232637
V       -5.10235079      -0.03132329       8.58116286      -0.01664216       0.04699232       0.00525583
V       -2.50538112       7.36025623      -0.01708053      -0.04554087      -0.10998839       0.01370180
V       -3.46983848       6.11896805       2.11934200       0.00742240      -0.01276263       0.01928827
V       -4.31196486       4.88121236       4.23755346      -0.00488228       0.01180294      -0.03189657
V       -5.21309262       3.66225375       6.41526511       0.08190154      -0.03686717      -0.12609961
V       -3.58833556       9.73390084       0.04263135       0.14915999      -0.04969835      -0.12952541
V        8.65040076       8.55443288       2.16503499       0.02710450       0.01568180      -0.04009908
V        7.80687881       7.34483775       4.25388502      -0.00024415       0.00084862      -0.00109818
V       -6.02141649       6.19121413       6.27628729      -0.04410055      -0.02640692       0.04959860
V       -7.14516978       4.93239697       8.06211872       0.20928593      -0.66751334       0.00244525
V        2.60247790      -1.07525437      -0.60333322      -0.00662368       2.12138807       1.18903007
V        1.78291649      -1.22507994       2.06093033      -0.10748599      -0.13136659       0.13441539
V       -3.48274546       9.81849069       4.21484303      -0.00173078      -0.00812057       0.01197933
V        0.00645084      -3.67059198       6.40969280      -0.00126022       0.00865655      -0.01781917
V       -0.89225961      -4.95648091       8.55773787       0.10211018       0.03896531      -0.18304788
V        1.74292788       2.35655263       0.04005541      -0.02321841      -0.03690456      -0.04014035
V        0.86286884       1.21655749       2.16465627       0.02254920      -0.05658426      -0.04512565
V        0.02016820       0.00961937       4.23285061       0.00476311       0.01102137      -0.00635312
V       -0.84435300      -1.20889199       6.38062698      -0.00833220       0.00477233      -0.00493620
V       -1.76828082      -2.48220794       8.54715958      -0.02995946       0.00050780       0.00071379
V        0.85413765       4.84786015      -0.00347136      -0.01302110       0.00664533      -0.01092618
V        0.02238401       3.62256136       2.10217979       0.00902647      -0.01175107       0.00963911
V       -0.87322462       2.44389692       4.25301282       0.01303687      -0.00170105      -0.01180131
V       -1.73619323       1.24273886       6.38563974       0.01041704      -0.00921474      -0.00705443
V       -2.58326933       0.03054543       8.50508345       0.00487025       0.01306156       0.00246108
V        0.12538246       7.21769107       0.09372412       0.02685042      -0.02231031       0.04488290
V       -0.87806320       6.04639564       2.10335077       0.00664531      -0.00756532       0.03810741
V       -1.72363367       4.86644408       4.23105581       0.00402062      -0.00482556      -0.00235702
V       -2.60248692       3.66125334       6.38275293       0.00683423       0.01290990      -0.00054722
V       -3.55253908       2.43394183       8.51648766       0.06049672      -0.05608009      -0.07588259
V       -4.87745785       3.33010352      10.86856798      -0.24673674      -0.30801823      -0.54319565
V       -1.75971815       8.52313289       2.19372178       0.05109190       0.01938722      -0.02505148
V       -2.60019310       7.32382136       4.23723860       0.00233513       0.00379591      -0.00042327
V       -3.43414179       6.13115191       6.33822559      -0.02971163      -0.01845765       0.02892293
V       -4.19508634       4.91586644       8.40842726      -0.12389923      -0.13820259       0.02490380
V        0.85181591      -6.16273162      10.63458716       0.18450173      -0.02811583      -0.05633888
V        0.05749796      11.01426892       2.16088778      -0.11515548      -0.11032498      -0.25651246
V       -0.88034276       9.80019763       4.22420832       0.02734101       0.01450842      -0.03039450
V       -1.84076050       8.56187959       6.31880392       0.00390503      -0.00681898       0.01163025
V        1.75399513      -4.89758464       8.54602047       0.01636906      -0.01483756      -0.02364660
V        4.36898915       2.47212892      -0.00184967      -0.03013743      -0.07652927      -0.02160527
V        3.44968648       1.21328698       2.04665177       0.01861643      -0.05162084       0.00159210
V        2.60110129       0.03346051       4.20311370       0.02415834       0.00656447       0.00676176
V        1.69799328      -1.20375386       6.37723020       0.00229447      -0.00174770       0.00543975
V        0.80268577      -2.47707458       8.53709524      -0.00469245       0.00071454       0.02493086
V        3.46247374       4.88717108       0.00947258       0.00753323      -0.00598015       0.00365137
V        2.60812217       3.65403802       2.11026645      -0.00431526      -0.01761873      -0.01200289
V        1.74298622       2.45535828       4.24523021      -0.00679961       0.00303691      -0.01002418
V        0.85302039       1.23863198       6.37766611      -0.00627372       0.00127945      -0.01137622
V        0.00575715      -0.00211408       8.51413083       0.00563350      -0.01293141       0.00497371
V        2.65028850       7.33136768       0.00310260       0.03077470       0.01008045       0.01725826
V        1.77905033       6.06669647       2.14783818       0.00502362      -0.00212054       0.00514096
V        0.85729000       4.85567937       4.24134679       0.00395011       0.00229903      -0.00412826
V        0.00106766       3.66303321       6.36648614      -0.00801855       0.00042485      -0.00624361
V       -0.86445560       2.44334272       8.49521493       0.01763037      -0.01041656       0.01048865
V       -2.45215593       3.66423106      10.62136927      -0.06418040      -0.01255794       0.02400815
V        0.95361096       8.52152972       2.20327759      -0.02240759       0.06038661      -0.00894117
V       -0.00281889       7.27059642       4.23362618      -0.00002616      -0.00020397       0.00504610
V       -0.83209931       6.13202440       6.37762866      -0.00475762       0.00388947       0.00724497
V       -1.66933635       4.90249935       8.49485513      -0.04463844      -0.01086387       0.00787716
V        3.46087773      12.24686085       0.00560170       0.01235765      -0.00242931       0.00240924
V        6.99139412      -1.19934783       2.14058290      -0.03802845      -0.01480793       0.01148476
V        1.78020925       9.80806696       4.16975914      -0.00981456       0.02638697      -0.00206894
V        4.44282567      -4.92632142       8.63745109      -0.00655854       0.01197355      -0.00360957
V        6.95692111       2.42211941       0.06133862      -0.01902767       0.00472860       0.00378617
V        6.05789843       1.23794282       2.11681364      -0.00471551      -0.01096541       0.02677844
V        5.23042674       0.06007824       4.22765905       0.00003988      -0.00882590      -0.02247980
V        4.19248252      -1.08951336       6.19872523      -0.00601194       0.01305927      -0.03236036
V        6.10208982       4.89909066       0.00385012      -0.01113229      -0.01023377       0.00714137
V        5.20972931       3.67400268       2.12705470      -0.00469944       0.00168490      -0.01318043
V        4.34492616       2.46749918       4.23595261       0.00350503       0.00203339      -0.00194114
V        3.49803809       1.28962511       6.40826380      -0.01329390       0.01935707       0.00537433
V        2.53880385       0.10949603       8.51887625      -0.00921488      -0.00126041      -0.00248776
V        5.20636562       7.34123145       0.00582962       0.00080787      -0.00457408       0.00517426
V        4.36734703       6.10346955       2.10631281      -0.00681994       0.00019952       0.00464989
V        3.44595321       4.90945059       4.20288834      -0.00254775       0.00523748      -0.00912824
V        2.56277191       3.68024628       6.37321160      -0.03317169       0.02489327      -0.01021302
V        1.74868678       2.46339569       8.51551262      -0.02841894       0.00284770      -0.01542615
V        4.35364331       9.79636016       0.01399616      -0.00553030       0.00223244      -0.00235042
V        3.52761504       8.55920876       2.14022994      -0.00338314       0.00808636       0.00207547
V        2.60842355       7.34522703       4.26351251       0.00027785       0.01292541       0.00825751
V        1.73069302       6.10605444       6.38872709       0.00540582       0.00048026       0.00993577
V        0.87062125       4.88793064       8.51068727      -0.00414134       0.00105348      -0.00039806
V       10.44100279       0.04982318       0.04031563      -0.01399362      -0.00249466      -0.00986656
V        9.57278813      -1.20007613       2.15777693      -0.00450671       0.00193471       0.00507967
V        8.71528185      -2.41253369       4.28981325      -0.01236068      -0.00666178       0.00570142
V        7.86992859      -3.68401624       6.45721922       0.01922336       0.00063502       0.04965387
V        8.73390256       1.26586005       2.09628137      -0.00162124      -0.00395026       0.00379606
V        7.86113520       0.04892703       4.22072401       0.00168313      -0.01199584      -0.00247079
V        8.76760633       4.87810766       0.10568976       0.00336901      -0.01815032       0.00302766
V        7.81346737       3.67868215       2.15007364      -0.00593141      -0.00553310      -0.01462255
V        6.97398741       2.46885976       4.28182425       0.00327853       0.01193953      -0.00346561
V        6.16279462       1.39848380       6.43042948       0.02356940       0.04999383       0.08551294
V        7.84960276       7.35515608      -0.00276464       0.00202359       0.01799751       0.01210209
V        6.94974112       6.10910007       2.12368968      -0.00422308       0.00171010      -0.00751988
V        6.10174812       4.92238089       4.21302981       0.00109574       0.04073454      -0.02731960
V        5.11539805       3.72855772       6.22497707      -0.01977859       0.04797178      -0.02868815
V        4.41216564       2.55018659       8.50251775      -0.07709319      -0.08576750      -0.00844647
V        6.89961096       9.81250489       0.02259070       0.04084452       0.00417103      -0.02068207
V        6.07279686       8.57371557       2.14313909       0.00516237       0.00915483      -0.00412506
V        5.20769679       7.37221762       4.22603112      -0.00060747       0.00705454       0.00454405
V        4.28961678       6.19172631       6.30253022       0.02464110       0.02978687       0.03902401
V        3.38734681       4.98470721       8.52280579       0.04340123       0.00501421      -0.02285004
Cr      -0.81171533       2.42765931       0.03127839       0.01306631      -0.00521472      -0.01562725
Cr      -4.23013878      -2.46066212       8.55688527       0.02022758      -0.03331021       0.00567386
Cr      -1.68133143       4.91769578       0.06673485       0.00007442      -0.00215038       0.00848308
Cr       2.64740583       7.29796293       8.55628264       0.04472270      -0.00393086      -0.00773150
Cr       9.57153712       2.40750155       0.11275912       0.00691701      -0.00138233      -0.00580119
Ti       5.16987290      -3.63631839       6.39470568       0.00371205       0.00010317      -0.00545006
Ti       3.44813066      -2.42711449       8.51735394       0.01414841       0.00169604      -0.01424487
Ti       6.94059131      -1.17905099       6.38760839      -0.01295308       0.01330447       0.01030805
Ti       6.24721770      -2.55205448       8.72205857       0.02982514      -0.01422148      -0.01150135
Ti       5.17621784      -0.01775122       8.49260501      -0.00673555      -0.02773805      -0.00857338
