124
Lattice="13.002903728225448 -0.009255746979815498 0.02985436048510635 -4.3430024538978165 12.242781786512072 -0.02221962293537814 -4.3055893186509335 -6.127411939181864 10.626069933025846" Properties=species:S:1:pos:R:3:forces:R:3 energy=-1105.0854632613439 free_energy=-1105.0854632613439 stress="3.070266523238174e-06 0.0012095651368258119 -0.0010463666383559666 0.0012095651368258119 0.000845022668825476 0.001481298306361578 -0.0010463666383559666 0.001481298306361578 0.000858061381566252" pbc="T T T"
V        0.10860731       0.06955638       0.01242388      -0.09857480       0.06453623       0.07147909
V       -0.83341939      -1.19437411       2.11703670      -0.01137328      -0.01836389      -0.01069827
V       11.28768488      -2.42535050       4.28389527      -0.00549216      -0.00236673      -0.00479254
V       -6.89446481       8.60120395       6.32366410      -0.00264422      -0.00475781      -0.03515918
V       -3.58003924      -4.73274581       8.44935890      -0.01632107       0.00550219      -0.02544203
V       -1.66310695       1.23560225       2.09625143      -0.00927429       0.00753052       0.00944336
V       -2.55229843       0.03051858       4.23243974      -0.01297812      -0.00014877       0.00851748
V       -3.40148499      -1.22673639       6.40840525      -0.01025567       0.01183783      -0.00538664
V       -2.56964461       3.65904923       2.07905221       0.00499773       0.01002315       0.00416532
V       -3.44269387       2.46739954       4.25032212      -0.00136860      -0.00743108       0.00300938
V       -4.27739477       1.21387530       6.36339391      -0.02442770       0.05722187       0.05168960
V       -5.09008208      -0.03112902       8.60072957       0.01343853       0.05533193       0.06154513
V       -2.52231780       7.39046802       0.03299943      -0.10232690      -0.02534310       0.15551113
V       -3.47185963       6.12555711       2.11804225       0.00253583       0.00039225       0.01001674
V       -4.31115666       4.88324022       4.24532007      -0.00410501       0.00909808      -0.01201716
V       -5.21212129       3.71559485       6.42081822       0.08907229       0.10905073      -0.09906274
V       -3.58923642       9.80325434       0.07438338       0.14581884       0.15446900      -0.03537796
V        8.65001930       8.56024309       2.16939019       0.02557559       0.02466687      -0.03180224
V        7.80662910       7.34532925       4.25558037      -0.00101632      -0.00510798       0.00052574
V       -6.02565442       6.18692826       6.28030288      -0.05302020      -0.03586869       0.06115174
V       -7.14175309       5.28274809       8.28906586       0.21490265       0.32288025       0.63183950
V        2.60762621      -2.59695999      -1.47042427       0.00780025      -2.23599506      -1.29166205
V        1.79319118      -1.16268579       2.04436303      -0.06921761       0.04424471       0.08894528
V       -3.48121418       9.81892917       4.22031939       0.00200747      -0.01366882       0.02659419
V        0.00299004      -3.66659790       6.40844550      -0.00791064       0.01615177      -0.02849795
V       -0.89979373      -4.93561417       8.61719244       0.07381742       0.10418267      -0.02013076
V        1.75592910       2.34737307       0.04889955       0.01113302      -0.05295103      -0.01429349
V        0.85555911       1.24417136       2.18606293       0.00159502       0.01873301       0.01408086
V        0.01810895       0.00697532       4.23837850      -0.00476594       0.00435567       0.01316344
V       -0.84545954      -1.20449508       6.38114456      -0.00736114       0.01575697      -0.00472241
V       -1.75747218      -2.48425799       8.54315192      -0.00108520       0.00266196      -0.01041867
V        0.85238366       4.85124759      -0.00431000      -0.01510137       0.02049395      -0.01109115
V        0.02304647       3.62720174       2.09768265       0.01092091       0.00217129      -0.00008822
V       -0.87399189       2.44865612       4.25450914       0.00859960       0.01530075      -0.00334873
V       -1.74295723       1.24436200       6.38401183      -0.01271951      -0.00348023      -0.00746459
V       -2.58798611       0.02076678       8.51038185      -0.00939558      -0.00677635       0.01651848
V        0.07720289       7.31651150       0.07000083      -0.11406961       0.27238388      -0.02078732
V       -0.86895167       6.05237439       2.08102537       0.02799168       0.01557720      -0.02478467
V       -1.72295888       4.86670757       4.23147167       0.00487058      -0.00735547      -0.00143240
V       -2.59786536       3.66877745       6.38253948       0.01939210       0.02885389      -0.00258219
V       -3.50405635       2.47088723       8.54308364       0.19712027       0.05405768      -0.00830055
V       -4.88768097       3.69383522      11.05238744      -0.27413084       0.69899137      -0.03050685
V       -1.75773316       8.52576203       2.18981637       0.05285155       0.02831367      -0.03416329
V       -2.60155533       7.32448314       4.23850912      -0.00137745      -0.00186962      -0.00170491
V       -3.43485500       6.13570813       6.34163201      -0.02990878      -0.01162141       0.03452172
V       -4.19636073       4.97363301       8.44623568      -0.12374391       0.03410558       0.13572668
V        0.81759671      -6.11620119      10.65356113       0.08828150       0.10095437       0.00473736
V        0.11056326      11.02980183       2.25635950       0.04303427      -0.04896714       0.03406373
V       -0.89233064       9.77841620       4.24196362      -0.00333175      -0.04455045       0.02492121
V       -1.84243520       8.56175852       6.31866411       0.00154974      -0.01025824       0.00770139
V        1.74957100      -4.89411844       8.55100134       0.00470048      -0.00953081      -0.01357155
V        4.37808973       2.50816670       0.01128505      -0.00189826       0.02136213       0.01264641
V        3.43967526       1.21668171       2.03169379      -0.00866060      -0.03081084      -0.03198567
V        2.59054806       0.02504022       4.20129529      -0.00323159      -0.01483699       0.00603606
V        1.69861177      -1.20075391       6.38128059       0.00410983       0.00695649       0.01608852
V        0.80338416      -2.47239658       8.52871058       0.00183783       0.01977523      -0.00136736
V        3.45773272       4.88916641       0.00839858      -0.00937176       0.00261394       0.00401177
V        2.60988829       3.65864584       2.11292357      -0.00011021      -0.00790280      -0.00591105
V        1.74841978       2.45478155       4.24740226       0.01047322       0.00338356      -0.00278974
V        0.85545768       1.24247188       6.38114345       0.00222697       0.01494452      -0.00431795
V        0.00106533       0.00313386       8.51494059      -0.00912040       0.00230290       0.01010327
V        2.62669930       7.32496816       0.00183226      -0.03996269      -0.00176625       0.01186258
V        1.77264811       6.06549750       2.13626220      -0.01638205       0.00206147      -0.02731358
V        0.85902078       4.85826838       4.24064628       0.01012712       0.00662027      -0.00808755
V        0.00178497       3.66348636       6.36462106      -0.00681495      -0.00170194      -0.01380974
V       -0.86632762       2.44881695       8.49456452       0.00963257      -0.00340105       0.00566822
V       -2.45259432       3.66239979      10.62287104      -0.06259985      -0.01422213       0.02783659
V        0.95379641       8.49217023       2.18603398      -0.02346490      -0.01886958      -0.05647612
V       -0.00276703       7.26889027       4.23252454       0.00042604      -0.00825247      -0.00306526
V       -0.83335079       6.12646380       6.37464485      -0.00880776      -0.01513494      -0.00351993
V       -1.66933577       4.90870700       8.49836673      -0.04444045       0.00015249       0.01371326
V        3.46381024      12.24835875       0.01035090       0.02451011      -0.00431535       0.01183926
V        7.01918976      -1.20491603       2.13529278       0.04142755      -0.02919922       0.00194133
V        1.78707353       9.79272012       4.17157400       0.01219193      -0.01920154       0.00855835
V        4.44294559      -4.92696634       8.63594174      -0.00480461       0.00483457      -0.01357178
V        6.96460350       2.42322702       0.06268263       0.00751079       0.01215127       0.00709112
V        6.06347263       1.23803392       2.10634538       0.01266052      -0.00728689      -0.00051079
V        5.23296489       0.06035688       4.23311718       0.00896388       0.00240788       0.00334985
V        4.19533102      -1.08865867       6.20978115      -0.00196057       0.01558235       0.00496974
V        6.10391530       4.90381119       0.00427700      -0.00485097       0.00765397       0.01068633
V        5.20949548       3.67336076       2.13360731      -0.00751012       0.00271806       0.00815834
V        4.34687091       2.46601775       4.23779231       0.01205144       0.00714183       0.01297776
V        3.50395910       1.28714942       6.39843095       0.00409088       0.01265289      -0.01760740
V        2.54608161       0.10778966       8.51979813       0.01658449      -0.00296046       0.00019794
V        5.20536524       7.34016957       0.00563423       0.00065717      -0.01087158       0.00225255
V        4.36654579       6.10557464       2.10842575      -0.00998047       0.00125802       0.00812707
V        3.45288289       4.89798073       4.20780867       0.01997582      -0.02231655       0.01363306
V        2.58940906       3.67378870       6.36859219       0.04411644       0.00681319      -0.01519759
V        1.75425739       2.46459940       8.52066070      -0.00886054      -0.00011805      -0.00603313
V        4.35386228       9.79805423       0.01388242      -0.00465618       0.00009293      -0.00596501
V        3.52771803       8.55639042       2.13967224      -0.00455767      -0.00496185      -0.00245553
V        2.60890984       7.33995808       4.26261223       0.00099981      -0.01660459      -0.00324560
V        1.72996533       6.10377146       6.38607964       0.00454041      -0.01065504      -0.00105258
V        0.87029130       4.88799949       8.51046462      -0.00593139      -0.00637841      -0.00480077
V       10.43869637       0.05452938       0.03818964      -0.02353672       0.00692440      -0.01734904
V        9.57410524      -1.19893455       2.15721197      -0.00117739      -0.00119384       0.00179449
V        8.71582860      -2.41099860       4.29245365      -0.01099617      -0.00862139       0.00868542
V        7.86274358      -3.68580127       6.44185010      -0.00448856       0.00247268       0.00017567
V        8.73564127       1.26976778       2.10071060       0.00396090       0.00763362       0.01244584
V        7.86759580       0.04986417       4.22448106       0.02209962      -0.00756687       0.01166220
V        8.76715218       4.88065938       0.09933518       0.00526329      -0.00846573      -0.01590656
V        7.81315589       3.68210501       2.15874229      -0.01029810       0.00415204       0.00903704
V        6.96603636       2.46356544       4.28291359      -0.01526766      -0.00052303       0.00292031
V        6.14505768       1.39958938       6.39283627      -0.02854750       0.05707547      -0.02276989
V        7.84088436       7.35701373       0.00474195      -0.02096384       0.01824983       0.02916595
V        6.94869025       6.10848363       2.12467675      -0.00653225      -0.00366903      -0.00761355
V        6.09040515       4.90516209       4.23227874      -0.02583107      -0.00691776       0.03247357
V        5.16540944       3.74726866       6.32333960       0.12565945       0.10846268       0.26149400
V        4.37807197       2.58999934       8.52967968      -0.17070534       0.02505073       0.07528576
V        6.89827519       9.81895270       0.02752621       0.03769334       0.01629523      -0.01107438
V        6.07336358       8.56906783       2.14108013       0.00846429      -0.00655525      -0.01116764
V        5.20834795       7.36914747       4.22536938       0.00104779      -0.00775223       0.00284134
V        4.29079506       6.16037871       6.28952223       0.02642483      -0.05574771       0.00219919
V        3.38991703       4.98639251       8.52173138       0.04905777       0.01235269      -0.02400318
Cr      -0.81787884       2.42632721       0.03636406      -0.00499871       0.00120745      -0.00027513
Cr      -4.23645150      -2.44852842       8.55466772       0.00307244       0.00750991       0.00112704
Cr      -1.67290695       4.91842652       0.06531374       0.01969994       0.00468964       0.00562817
Cr       2.62268938       7.29457959       8.55307765      -0.02834827      -0.00992738      -0.01863145
Cr       9.56780875       2.41368168       0.11380788      -0.00372299       0.01562864      -0.00244804
Ti       5.17119795      -3.63398939       6.39594290       0.00586811       0.00377810      -0.00360705
Ti       3.45013786      -2.42080763       8.51745022       0.01945359       0.02402099      -0.01063782
Ti       6.94156227      -1.17352493       6.38979347      -0.00711789       0.02647533       0.01731508
Ti       6.23635636      -2.54270653       8.72426380      -0.00102669       0.01543825      -0.00213826
Ti       5.19532480       0.02690570       8.50422042       0.04994729       0.09439249       0.02012766
