124
Lattice="13.002903728225448 -0.009255746979815498 0.02985436048510635 -4.3430024538978165 12.242781786512072 -0.02221962293537814 -4.3055893186509335 -6.127411939181864 10.626069933025846" Properties=species:S:1:pos:R:3:forces:R:3 energy=-1107.2908237302993 free_energy=-1107.2908237302993 stress="0.0036078844276368886 0.0005435364823275227 -0.00012659217087123963 0.0005435364823275227 0.003808466566017482 0.0010950433038648295 -0.00012659217087123963 0.0010950433038648295 0.004074027307732294" pbc="T T T"
V        0.03186208      -0.00741974      -0.01330452      -0.13799824      -0.09865249      -0.02423460
V       -0.84600239      -1.22074544       2.11470907      -0.02175422      -0.04875219      -0.01046868
V       11.28665818      -2.42668598       4.28439148      -0.00207677      -0.01615150      -0.02403385
V       -6.90316161       8.58024205       6.34520131      -0.01933128      -0.04870240       0.00403191
V       -3.49485413      -4.88080118       8.48596660       0.09769192      -0.17774621       0.02982310
V       -1.65232443       1.22907422       2.09903382       0.01635607      -0.00446303       0.01151913
V       -2.55165535       0.02147326       4.22625821      -0.00448367      -0.01975723      -0.01328059
V       -3.40095481      -1.23812427       6.41851599      -0.00847015      -0.01081269       0.00752083
V       -2.56477367       3.65025369       2.07367089       0.01479099      -0.00917853      -0.00876233
V       -3.43872086       2.46900419       4.23966826       0.00082186      -0.00060282      -0.01731054
V       -4.26455660       1.17234484       6.32937244       0.01350587      -0.02181090      -0.01962307
V       -5.10501031      -0.00407462       8.59220578      -0.01805143       0.06593579       0.01961672
V       -2.52206170       7.33455436      -0.01499134      -0.04395883      -0.04805681      -0.00314379
V       -3.46951118       6.11787143       2.12760860       0.00804038      -0.00836884       0.02472625
V       -4.31205231       4.88341699       4.23258373      -0.00877173       0.01308976      -0.02107862
V       -5.19553306       3.65128743       6.40043262       0.05949882      -0.01838025      -0.05150582
V       -3.53304335       9.75194289       0.01288481       0.16875647       0.06052920      -0.09436068
V        8.65868683       8.54518132       2.15075029       0.01848651      -0.01386206      -0.04776993
V        7.80436766       7.33956547       4.25372906      -0.00885875      -0.00802774      -0.00910974
V       -6.04416032       6.14896058       6.30727664      -0.06781190      -0.11852143       0.09521181
V       -6.99901245       4.80716201       8.25207128       0.41443162      -0.37928695       0.52139655
V        2.60014856      -0.45703757      -0.25977720      -0.00246200       1.77714097       0.99412895
V        1.76587447      -1.27303712       2.07624001      -0.04858438      -0.14266648       0.06308155
V       -3.48266446       9.80646934       4.20961092       0.00618708      -0.03109488      -0.00541021
V        0.00538090      -3.68137498       6.40596804      -0.01169228      -0.01312155      -0.02372039
V       -0.87387510      -4.96361078       8.50235058       0.05135331      -0.01003940      -0.17119531
V        1.72385298       2.35681545       0.01435634      -0.05372173       0.00992992      -0.06360144
V        0.89234931       1.18234853       2.12207374       0.08172022      -0.08487272      -0.11321924
V        0.01962652       0.00872051       4.22704418       0.00176333       0.00502646      -0.01103148
V       -0.84343660      -1.21349094       6.38319276      -0.00616945      -0.01017844      -0.00662709
V       -1.77892890      -2.48739299       8.54253906      -0.03517930      -0.00529743      -0.02781026
V        0.84880699       4.85052905      -0.00736809      -0.00324855      -0.01966918      -0.01221756
V        0.02751950       3.61483800       2.09990519       0.01697642      -0.01581148       0.00332098
V       -0.86491348       2.44134506       4.24616706       0.02389471      -0.00049660      -0.02072475
V       -1.73274968       1.24271961       6.38404768       0.01254737      -0.00676851      -0.00180049
V       -2.58414096       0.02908201       8.50686911       0.00477888       0.00165532       0.01132517
V        0.11060604       7.26143935       0.09543765      -0.04596354       0.13584873       0.00503116
V       -0.87593422       6.04820721       2.09733957       0.01615239       0.01631949      -0.00058659
V       -1.71908648       4.86558859       4.22887670       0.00750287      -0.00440639       0.00405449
V       -2.59884323       3.66436023       6.38259558       0.01089225       0.01463476      -0.00339083
V       -3.53843144       2.42543057       8.49233107       0.03510815      -0.02466336      -0.06343159
V       -5.05639411       3.42795443      10.64523401      -0.50196665       0.24687020      -0.64690178
V       -1.73418686       8.52605484       2.14658852       0.07544152       0.02020547      -0.13866797
V       -2.59731886       7.32050007       4.23511024       0.00756704      -0.00579785      -0.00411315
V       -3.44201514       6.11576203       6.33723334      -0.01500004      -0.04374152       0.00877855
V       -4.23972034       4.90042159       8.43758007      -0.14366328      -0.05518234       0.08388422
V        0.88959386      -6.18888026      10.61651649       0.12227249      -0.07526854      -0.04486078
V        0.03003251      10.98690433       2.10031469      -0.07179600      -0.08054169      -0.16988487
V       -0.87653129       9.79340038       4.20743096       0.02246714      -0.01608333      -0.04715615
V       -1.84279636       8.55991491       6.31292666      -0.01083222      -0.03236202      -0.00180926
V        1.76381802      -4.90877848       8.53290870       0.02107586      -0.02840668      -0.02650789
V        4.33859125       2.41475437      -0.00902799      -0.09355962      -0.15003479      -0.01060142
V        3.46791548       1.18575059       2.06291451       0.05783316      -0.05997328       0.06175492
V        2.60835918       0.02505118       4.20217710       0.02363413      -0.02221955       0.00696692
V        1.69676798      -1.20452763       6.37304345       0.00089014      -0.00436831      -0.00904935
V        0.80316879      -2.48088712       8.54522886      -0.00613334      -0.00312077       0.02547793
V        3.46072597       4.87868694       0.00963692      -0.00055108      -0.01296700       0.00978052
V        2.60755815       3.64213943       2.10369290      -0.00160183      -0.02076994      -0.01501963
V        1.74422543       2.45063784       4.23846797       0.00190382       0.00275925      -0.01710021
V        0.85474461       1.23744726       6.37539057      -0.00163732       0.00884746      -0.01219162
V        0.00257902      -0.00527937       8.51549799      -0.00234312      -0.00625543       0.01074143
V        2.64205221       7.33580525       0.00148735      -0.02353167       0.01713250       0.00857869
V        1.77881804       6.06750377       2.14461894      -0.00357817       0.01164056      -0.00460240
V        0.86118758       4.85669247       4.23864990       0.01958686       0.00921664      -0.01508940
V        0.00385640       3.66313316       6.36396411      -0.01016497       0.00427021      -0.00998895
V       -0.85824940       2.44354812       8.49948758       0.01309495      -0.00578844       0.01755761
V       -2.50598461       3.64384054      10.61831991      -0.16162494      -0.05757252      -0.01048278
V        0.92739154       8.54031581       2.17035385      -0.08018868       0.05325642      -0.10540906
V        0.00088317       7.27382389       4.22713797       0.00801511       0.00602419      -0.02286650
V       -0.83077875       6.13343697       6.37834657       0.00062360      -0.00378857       0.00458529
V       -1.67749418       4.88723166       8.49284956      -0.03667005      -0.03280074      -0.00869108
V        3.46029821      12.23548725       0.00130921       0.00937255      -0.02791913      -0.00282138
V        6.97958633      -1.20992293       2.13282516      -0.03910296      -0.03715394      -0.00610894
V        1.77138855       9.81330917       4.15358795      -0.01961741       0.00285680      -0.04203466
V        4.44688715      -4.92828601       8.63736514      -0.00097808      -0.00559477      -0.01072033
V        6.95068592       2.42069688       0.05745826      -0.02112602      -0.00331226       0.00286806
V        6.05807893       1.22518574       2.11949331       0.01020642      -0.03521036       0.02399308
V        5.23294079       0.05486150       4.22105578       0.01790818      -0.01713169      -0.00519591
V        4.18704759      -1.08530344       6.18507732      -0.01835675       0.02013947      -0.03186750
V        6.09328446       4.88938190       0.00603921      -0.02317927      -0.02342261       0.01347598
V        5.20609763       3.66657700       2.12191755      -0.01732456      -0.00384878      -0.01180808
V        4.34811582       2.46577998       4.23743606      -0.00136366      -0.01117178      -0.02610478
V        3.49971972       1.29494205       6.40563307      -0.01100129       0.02542802       0.00088564
V        2.53463880       0.11055119       8.52001967      -0.00781146       0.00978723       0.00102667
V        5.20173796       7.33862316       0.00866860      -0.00017466      -0.00031510       0.01568322
V        4.36387507       6.10120153       2.10830323      -0.02236254       0.00038266       0.01479087
V        3.44861753       4.90717397       4.20306184       0.00744178       0.00252888       0.00493450
V        2.57020082       3.68161228       6.37374273       0.01665798       0.01491276      -0.01101557
V        1.74294280       2.46652629       8.51420311      -0.02374252       0.00731290      -0.01325186
V        4.35089421       9.79172131       0.01486752      -0.00694073      -0.00948977       0.00087789
V        3.51867839       8.56061530       2.13975079      -0.02256756      -0.00088107       0.00038875
V        2.60892784       7.34919206       4.26478033       0.00035281       0.00241974       0.00624740
V        1.74143024       6.10844263       6.39112657       0.02173213       0.00088919       0.01092340
V        0.87213660       4.88385371       8.50819567      -0.00059230      -0.00795766      -0.00976316
V       10.44308575       0.04085550       0.03445608       0.00216572      -0.00795952      -0.02398766
V        9.57120843      -1.20083819       2.15559121       0.00250506      -0.02255759      -0.01596640
V        8.71151700      -2.41234949       4.29302612      -0.00994626      -0.02831089       0.00116541
V        7.88029030      -3.69187016       6.47159234       0.01952048      -0.01948988       0.05684338
V        8.73150166       1.26511822       2.09062767      -0.00379178      -0.00885890      -0.00964224
V        7.85967373       0.04698868       4.21687024       0.01283786      -0.01215361       0.00072996
V        8.76630847       4.87301836       0.10774065       0.00507965      -0.01390322       0.00555296
V        7.80898226       3.67552014       2.15046285      -0.01780261       0.00008428      -0.00305963
V        6.96968867       2.46655128       4.27962659      -0.00515210       0.00989263      -0.00579007
V        6.17058113       1.43073979       6.46323747       0.02557954       0.09983792       0.13063791
V        7.84978376       7.35679355       0.00048879       0.00272237       0.01125006       0.01254378
V        6.94539511       6.10650038       2.12486450      -0.00916334       0.00547266      -0.00574426
V        6.10298509       4.92120690       4.22142035      -0.00482650       0.01148387       0.02040261
V        5.12893330       3.74987492       6.25984043       0.05366429       0.07155182       0.11124743
V        4.39654987       2.53033541       8.50861947      -0.03221987      -0.05499253       0.02300798
V        6.91027968       9.80180199       0.01262326       0.03297541      -0.02965306      -0.02278777
V        6.07273206       8.57455714       2.14404623       0.00312951       0.00160450      -0.00665463
V        5.20526825       7.36991207       4.23221515      -0.00333087      -0.00301431       0.01399951
V        4.31577271       6.17533818       6.32787404       0.08848128      -0.06188523       0.08051460
V        3.42699662       4.96639687       8.50720417       0.12309080      -0.04908351      -0.05156218
Cr      -0.80924393       2.42356991       0.02379913       0.00270404      -0.02169971      -0.02445935
Cr      -4.22432353      -2.46598034       8.55403420       0.01694612      -0.01776732      -0.00619736
Cr      -1.67558662       4.91708023       0.06902999       0.00662600       0.00051018       0.01687127
Cr       2.66204430       7.28742844       8.55051996       0.05419689      -0.04296496      -0.01933829
Cr       9.57486978       2.40328896       0.11297662       0.00943657      -0.01046171      -0.00508070
Ti       5.17607744      -3.63185563       6.39264261       0.01582699      -0.01106796      -0.02107802
Ti       3.45152642      -2.43095266       8.50941980       0.00993129      -0.00321186      -0.01395513
Ti       6.93941889      -1.17136228       6.39230677      -0.00765236       0.02438263       0.01270260
Ti       6.25677594      -2.55471675       8.72275192       0.03275335      -0.01776513      -0.00717923
Ti       5.16808305      -0.03621660       8.48618724      -0.01594974      -0.04558787      -0.01159076
