125
Lattice="12.997297633 -0.011767701 0.020547975 -4.343482613 12.249708349 -0.020353459 -4.310139927 -6.13071312 10.619003739" Properties=species:S:1:pos:R:3:forces:R:3 stress="-4.8621356090630585e-06 2.6595070385388563e-05 -5.423871430392552e-05 2.6595070385388563e-05 1.848735003086621e-05 3.58262623825699e-05 -5.423871430392552e-05 3.58262623825699e-05 -2.5846089290282575e-05" free_energy=-1115.9827416 energy=-1115.99073208 pbc="T T T"
V        0.02567000       0.04129000       0.04694000      -0.00008900       0.00246600       0.00074600
V       -0.85690000      -1.21205000       2.12377000       0.00060400       0.00008500       0.00035800
V       11.27076000      -2.45046000       4.25691000       0.00058100       0.00020100      -0.00163900
V       -6.90427000       8.56971000       6.34656000       0.00001200       0.00147800      -0.00103200
V       -3.46733000      -4.87090000       8.53473000      -0.00148600       0.00015500       0.00324000
V       -1.66788000       1.23873000       2.12106000       0.00238800       0.00064100      -0.00180600
V       -2.57327000       0.01809000       4.23479000       0.00258100      -0.00001000      -0.00137100
V       -3.40713000      -1.23435000       6.40379000      -0.00010800       0.00157000      -0.00249900
V       -2.56102000       3.66655000       2.08467000       0.00195700      -0.00210700      -0.00177600
V       -3.43147000       2.46750000       4.23594000      -0.00050600      -0.00020900      -0.00152700
V       -4.30621000       1.21859000       6.37110000       0.00273600       0.00104200      -0.00042300
V       -5.09953000      -0.05075000       8.58794000      -0.00380000      -0.00021700      -0.00257700
V       -2.56629000       7.34940000       0.03402000      -0.00161200       0.00240000      -0.00124300
V       -3.46723000       6.13938000       2.13691000      -0.00026600       0.00126500      -0.00065600
V       -4.31438000       4.90658000       4.24248000      -0.00060400       0.00035900      -0.00140200
V       -5.16694000       3.69336000       6.37088000       0.00080800       0.00076800       0.00086900
V       -6.04671000       2.44930000       8.50282000       0.00062700       0.00256600       0.00140000
V       -3.46896000       9.82999000      -0.00809000      -0.00009000       0.00159000       0.00130200
V        8.65386000       8.57847000       2.12192000      -0.00124100       0.00088200       0.00031800
V        7.79446000       7.33615000       4.25223000      -0.00026900      -0.00209200       0.00085600
V       -6.04867000       6.13271000       6.36664000      -0.00217000       0.00114000      -0.00015900
V       -6.90959000       4.92709000       8.49606000      -0.00191900       0.00031900      -0.00083600
V       -1.70366000      -6.11834000      10.62181000      -0.00055700      -0.00014800       0.00143900
V        1.73746000      -1.22011000       2.11400000       0.00126800      -0.00127300       0.00133200
V       -3.49452000       9.79489000       4.21372000       0.00033400      -0.00297400       0.00198100
V       -0.00668000      -3.68568000       6.38454000      -0.00022400      -0.00246900       0.00062800
V       -0.85542000      -4.90357000       8.51629000      -0.00176600       0.00028500      -0.00038500
V        1.71959000       2.43636000       0.04696000      -0.00324800      -0.00142300       0.00110600
V        0.89964000       1.21955000       2.15429000       0.00267700      -0.00187500       0.00321700
V       -0.00370000       0.01113000       4.24652000       0.00060800      -0.00071200       0.00210700
V       -0.85560000      -1.21072000       6.36320000       0.00225000       0.00059000      -0.00055200
V       -1.78377000      -2.45814000       8.52409000      -0.00044800      -0.00110500       0.00123400
V        0.84319000       4.86988000       0.00043000      -0.00144100      -0.00263500       0.00030100
V        0.02581000       3.63410000       2.12128000      -0.00015400      -0.00334900      -0.00205500
V       -0.85697000       2.46149000       4.24478000       0.00112600      -0.00113700      -0.00029300
V       -1.72686000       1.24509000       6.36327000       0.00050000       0.00103600      -0.00011800
V       -2.56073000       0.02065000       8.50374000      -0.00060500       0.00029200      -0.00186000
V        0.02200000       7.37273000       0.00031000      -0.00139800       0.00090800       0.00001400
V       -0.87107000       6.07502000       2.06615000       0.00066400      -0.00152300      -0.00065300
V       -1.72066000       4.88693000       4.23585000      -0.00060100      -0.00097300      -0.00146600
V       -2.58202000       3.68114000       6.36751000       0.00083300      -0.00033200       0.00005700
V       -3.45080000       2.45366000       8.48813000       0.00036300       0.00080200       0.00017000
V       -5.18075000       3.68717000      10.59350000       0.00014100       0.00137500      -0.00008700
V       -1.73792000       8.59153000       2.10362000       0.00074400       0.00180500       0.00179800
V       -2.60425000       7.32975000       4.22574000      -0.00106700      -0.00211000       0.00139500
V       -3.45500000       6.11465000       6.37089000      -0.00056100      -0.00160500       0.00083400
V       -4.31391000       4.90572000       8.48871000      -0.00066800       0.00005200       0.00089200
V        0.88942000      -6.12089000      10.61388000      -0.00129500      -0.00008100      -0.00018000
V        0.00345000      11.03154000       2.07142000       0.00277400      -0.00210700       0.00070700
V       -0.88708000       9.78404000       4.18132000       0.00026600      -0.00536200      -0.00246300
V       -1.83796000       8.52787000       6.29829000      -0.00065100      -0.00418300       0.00173300
V        1.76811000      -4.89175000       8.52304000      -0.00200400      -0.00142200       0.00175600
V        4.32229000       2.45591000       0.01227000      -0.00187000      -0.00119200       0.00136600
V        3.47891000       1.24243000       2.11408000       0.00170000      -0.00005100       0.00127100
V        2.58989000       0.02427000       4.22425000       0.00083400      -0.00020000       0.00170600
V        1.68601000      -1.21393000       6.36976000      -0.00366700      -0.00230600       0.00352500
V        0.81045000      -2.46091000       8.52915000      -0.00036600      -0.00191400       0.00227100
V        3.45483000       4.90209000       0.01927000      -0.00112100      -0.00001700      -0.00143100
V        2.60683000       3.68614000       2.12397000      -0.00025900      -0.00098200       0.00064100
V        1.73758000       2.47369000       4.24667000       0.00159600       0.00033200       0.00256700
V        0.84853000       1.25547000       6.37624000       0.00016000      -0.00010700       0.00419000
V       -0.00695000       0.00885000       8.51742000       0.00002100       0.00077000       0.00193500
V        2.60480000       7.35281000       0.00547000      -0.00122600       0.00010100      -0.00129800
V        1.74397000       6.11197000       2.11444000      -0.00078700      -0.00072400      -0.00142500
V        0.87452000       4.89396000       4.23477000       0.00047700      -0.00277400      -0.00107000
V       -0.00031000       3.68664000       6.36317000      -0.00029700      -0.00022500       0.00035900
V       -0.85972000       2.46319000       8.50469000       0.00007300       0.00031200       0.00188600
V       -2.56903000       3.67196000      10.59844000       0.00221400      -0.00130900      -0.00023200
V        0.87868000       8.56125000       2.09292000       0.00222100      -0.00099200      -0.00053000
V       -0.00365000       7.29352000       4.18607000       0.00139600      -0.00399300       0.00068200
V       -0.83509000       6.12728000       6.37107000       0.00017800      -0.00243000      -0.00015300
V       -1.71442000       4.90876000       8.48817000       0.00041700       0.00087100       0.00007100
V        3.45906000      12.23339000       0.00044000      -0.00100700       0.00155800      -0.00007300
V        6.96803000      -1.21987000       2.11349000       0.00155200      -0.00145000      -0.00048600
V        1.75068000       9.79673000       4.10108000       0.00324400      -0.00308900      -0.00037100
V        4.44027000      -4.95186000       8.60785000       0.00059400       0.00591000      -0.00244400
V        6.96145000       2.43147000       0.05438000      -0.00220400       0.00094200      -0.00140700
V        6.06704000       1.23681000       2.12410000      -0.00150500      -0.00087000       0.00167200
V        5.22670000       0.03785000       4.20168000       0.00479900       0.00070900      -0.00173200
V        4.16696000      -1.09018000       6.15644000      -0.00066900      -0.00101600      -0.00027600
V        6.07821000       4.89006000       0.01196000      -0.00140300      -0.00026500       0.00198300
V        5.19984000       3.69420000       2.12184000      -0.00081800       0.00094700      -0.00005900
V        4.34731000       2.49238000       4.23404000       0.00274200       0.00130600       0.00217100
V        3.45631000       1.28999000       6.36997000       0.00087700       0.00283300       0.00351700
V        2.50556000       0.08433000       8.51619000      -0.00014200      -0.00075500       0.00370600
V        5.19852000       7.35837000       0.02323000      -0.00012300       0.00019100       0.00084100
V        4.33989000       6.12876000       2.12879000      -0.00009700      -0.00029900      -0.00004200
V        3.47344000       4.91488000       4.23624000       0.00008400       0.00012300      -0.00066800
V        2.60578000       3.68432000       6.36338000       0.00049100      -0.00200100      -0.00055900
V        1.73911000       2.47785000       8.51766000      -0.00068100      -0.00096700       0.00142500
V        4.33910000       9.80522000       0.00554000       0.00018200       0.00221100      -0.00175900
V        3.48642000       8.56907000       2.12017000       0.00132300      -0.00082800      -0.00067800
V        2.60717000       7.34447000       4.26333000       0.00085400      -0.00219100      -0.00086400
V        1.77718000       6.09721000       6.40351000      -0.00132500       0.00037000      -0.00163900
V        0.87629000       4.88123000       8.50370000       0.00047100       0.00111600      -0.00167800
V       10.43639000       0.04459000       0.02079000       0.00208500       0.00172200       0.00015000
V        9.56569000      -1.21918000       2.13490000      -0.00027300       0.00097400      -0.00165100
V        8.69117000      -2.44386000       4.28383000       0.00259700       0.00007400      -0.00128600
V        7.89784000      -3.72925000       6.49074000      -0.00447800       0.00352300       0.00005300
V        8.72872000       1.25852000       2.08651000       0.00140200      -0.00035000      -0.00000700
V        7.86933000       0.03473000       4.20673000       0.00252000      -0.00077400       0.00050000
V        8.75050000       4.84622000       0.10642000       0.00009100       0.00067400      -0.00512800
V        7.80240000       3.68475000       2.15754000      -0.00112700      -0.00017900      -0.00119700
V        6.96818000       2.47491000       4.24620000       0.00115300       0.00141200       0.00125000
V        6.09395000       1.35302000       6.31884000       0.00331500       0.00104100       0.00134400
V        7.81868000       7.35160000       0.01215000      -0.00027700       0.00179800       0.00163800
V        6.93947000       6.12758000       2.12543000      -0.00066700       0.00050000       0.00017500
V        6.08503000       4.91873000       4.25193000       0.00169500       0.00129400       0.00078100
V        5.22262000       3.70944000       6.38465000       0.00154700       0.00038200       0.00004600
V        4.34014000       2.53046000       8.52959000       0.00063000      -0.00012000       0.00127300
V        6.93315000       9.82110000       0.01937000      -0.00078000       0.00074100      -0.00194000
V        6.07188000       8.57791000       2.12887000       0.00017100       0.00042400      -0.00067400
V        5.20344000       7.35491000       4.25193000      -0.00059000       0.00046700      -0.00043100
V        4.36569000       6.11493000       6.36690000      -0.00217100       0.00017700      -0.00064500
V        3.47251000       4.97546000       8.52432000       0.00073800       0.00009900       0.00061400
Cr      -0.82000000       2.43560000       0.04810000       0.00343600      -0.00232600       0.00417400
Cr      -4.21603000      -2.47331000       8.54987000      -0.00455000       0.00214000      -0.00228600
Cr      -1.66774000       4.90310000       0.08870000      -0.00309500       0.00108600      -0.00436300
Cr       2.67582000       7.27281000       8.54977000      -0.00267900       0.00487300      -0.00209900
Cr       9.56741000       2.39975000       0.10925000      -0.00106500       0.00351800      -0.00406500
Ti       5.19641000      -3.65081000       6.35925000      -0.00157900       0.00095300      -0.00214600
Ti       3.46936000      -2.42957000       8.47447000      -0.00192700       0.00080000      -0.00108800
Ti       6.92337000      -1.20831000       6.35964000      -0.00054000       0.00121400      -0.00220600
Ti       6.26335000      -2.57417000       8.72365000       0.00056900       0.00149700       0.00097400
Ti       5.19643000       0.01261000       8.47475000      -0.00108300       0.00207500      -0.00140000
