125
Lattice="12.926010025 -0.008685361 0.032210645 -4.316839133 12.167373704 -0.022783476 -4.278301525 -6.089794222 10.563881067" Properties=species:S:1:pos:R:3:forces:R:3 stress="-0.019738267048366606 -3.61633038753676e-05 0.0005360520112764836 -3.61633038753676e-05 -0.02020887059494908 -0.00011765244702289943 0.0005360520112764836 -0.00011765244702289943 -0.019401050793313387" free_energy=-1115.67846064 energy=-1115.68392724 pbc="T T T"
V        0.02523000       0.03585000       0.04278000      -0.00078600       0.02309400       0.01164200
V       -0.84924000      -1.20505000       2.11491000      -0.01508200       0.00061900      -0.01353800
V       11.21056000      -2.42969000       4.24978000       0.01083600      -0.01161200      -0.00332600
V       -6.85976000       8.51155000       6.31225000       0.00700500       0.00086700      -0.00251300
V       -3.43268000      -4.84428000       8.48920000      -0.03694900       0.02537700       0.00886600
V       -1.66244000       1.22852000       2.11278000       0.01865100       0.01006500      -0.01386000
V       -2.55671000       0.01441000       4.21858000      -0.01162200       0.01378300      -0.02422200
V       -3.38617000      -1.22451000       6.36742000      -0.00030000      -0.01722800       0.02965400
V       -2.54480000       3.64282000       2.08376000       0.00610600      -0.00573500      -0.04352500
V       -3.41120000       2.44855000       4.21852000       0.01327200       0.00750700      -0.01067200
V       -4.28144000       1.21229000       6.33811000       0.00448600      -0.01344500      -0.00149000
V       -5.06405000      -0.05467000       8.54381000      -0.01557700       0.01814800      -0.02468700
V       -2.55313000       7.30095000       0.02839000       0.01628900      -0.02922900       0.00962700
V       -3.44434000       6.09670000       2.12348000       0.00189300       0.00506600       0.00624900
V       -4.28466000       4.87271000       4.21936000      -0.01185800       0.01103800       0.00814900
V       -5.13530000       3.66831000       6.33358000       0.00917100      -0.00314000       0.00969200
V       -6.00516000       2.43119000       8.45208000      -0.00570600      -0.00513400       0.01154100
V       -3.44470000       9.75780000      -0.00913000      -0.01747000       0.01651500      -0.01785300
V        8.61282000       8.52232000       2.11872000      -0.00321000      -0.00175900       0.01596800
V        7.75945000       7.29173000       4.24034000      -0.00622500      -0.00301600      -0.00496400
V       -6.00733000       6.09098000       6.33286000       0.00631000      -0.00282500      -0.01557200
V       -6.85966000       4.88773000       8.44888000      -0.00060700       0.01551100       0.00806600
V        2.59399000       0.01188000       0.00716000      -0.00563800       0.00408300      -0.01982300
V        1.72695000      -1.20896000       2.10257000       0.01134800      -0.00677900       0.01324400
V       -3.46613000       9.73699000       4.18977000      -0.01005700      -0.02808600       0.00716600
V       -0.00133000      -3.65689000       6.35160000       0.00044500      -0.00847400       0.00048300
V       -0.83704000      -4.87096000       8.47345000      -0.01642200      -0.00355700       0.00624700
V        1.71624000       2.42280000       0.04467000      -0.02093300      -0.00496300       0.01087000
V        0.89014000       1.21671000       2.13660000       0.01258000      -0.00934900       0.01510600
V       -0.00204000       0.01360000       4.22302000       0.01144700      -0.00718200       0.01066700
V       -0.84835000      -1.20520000       6.33768000       0.00838800       0.01907600      -0.03333200
V       -1.76137000      -2.44046000       8.48018000      -0.00609700      -0.00753600       0.01496200
V        0.84864000       4.84211000       0.00682000      -0.03573400      -0.01980600      -0.01841300
V        0.02855000       3.61623000       2.11504000      -0.00228500      -0.01707000      -0.01314400
V       -0.84653000       2.44444000       4.22613000      -0.01392900       0.00990700      -0.00732000
V       -1.71290000       1.23410000       6.33179000       0.01235500       0.00775600       0.00895100
V       -2.53998000       0.02026000       8.46163000       0.00739700       0.00189600      -0.00189200
V        0.02345000       7.32218000       0.00071000       0.00155200       0.00542100       0.00619500
V       -0.86173000       6.03859000       2.06013000       0.00511500      -0.01454600       0.00093800
V       -1.70536000       4.85828000       4.22064000      -0.00215600      -0.01465000      -0.01311300
V       -2.56039000       3.65582000       6.33739000      -0.00894500       0.00630400      -0.00687800
V       -3.42451000       2.43681000       8.44457000       0.00906800       0.00505600       0.00431000
V       -5.14355000       3.65977000      10.53951000       0.01498300       0.00474300       0.00482600
V       -1.72215000       8.52765000       2.09255000      -0.01507900       0.03452900      -0.00381100
V       -2.58422000       7.28489000       4.20238000      -0.00470300      -0.00514300       0.00407600
V       -3.43011000       6.07700000       6.33538000       0.00598700      -0.00770300       0.00853700
V       -4.27961000       4.87163000       8.44640000      -0.00603400       0.00421200      -0.01015100
V        0.89501000      -6.07611000      10.56422000      -0.00081100      -0.01623000       0.00387700
V        0.00177000      10.96268000       2.06673000       0.02218100      -0.01649300      -0.01267400
V       -0.87633000       9.72458000       4.16402000       0.00046100       0.00931500       0.00740000
V       -1.81482000       8.48100000       6.26708000      -0.00213900      -0.00805900       0.00363900
V        1.76634000      -4.85776000       8.47839000       0.00408900       0.00844000       0.01255900
V        4.30632000       2.44021000       0.01751000      -0.02220400       0.00966400      -0.01748000
V        3.45908000       1.23698000       2.10437000       0.00723300      -0.00878700       0.01346200
V        2.57391000       0.02915000       4.19934000       0.03159900      -0.02188000       0.03929000
V        1.68611000      -1.20281000       6.33735000       0.01170500       0.00081800      -0.00212000
V        0.81528000      -2.43959000       8.48213000      -0.00408700      -0.01239200       0.02148700
V        3.44384000       4.87173000       0.02248000      -0.01724200      -0.00361200       0.00742900
V        2.59694000       3.66163000       2.11859000      -0.00584400       0.01239800      -0.01261900
V        1.72981000       2.45965000       4.22477000       0.00929300      -0.01064200       0.00958600
V        0.85262000       1.24608000       6.33905000      -0.00964000       0.00599700       0.02794900
V        0.00144000       0.00973000       8.47258000      -0.00002800       0.00197200       0.00828500
V        2.59269000       7.30367000       0.00958000       0.00498500       0.01654400      -0.00315400
V        1.74062000       6.07629000       2.11147000      -0.00301600      -0.01449000      -0.01318200
V        0.87776000       4.86447000       4.22218000      -0.01700300       0.00554800      -0.02429800
V        0.00850000       3.66521000       6.33368000      -0.00484100      -0.01407700       0.00746600
V       -0.84513000       2.44613000       8.46195000      -0.00738900       0.00419600       0.00176200
V       -2.54591000       3.64906000      10.54845000      -0.00048200      -0.00259800      -0.00795600
V        0.87435000       8.50741000       2.08495000       0.00730100      -0.00150600      -0.00190400
V       -0.00098000       7.25325000       4.16673000       0.00998100      -0.02243200       0.00231200
V       -0.82694000       6.09091000       6.34168000       0.01532100       0.00044700      -0.00041100
V       -1.69632000       4.87757000       8.44620000      -0.00186700      -0.00878900       0.00471600
V        3.44425000      12.15308000       0.00443000      -0.00548800      -0.00196600       0.00486500
V        6.92810000      -1.20767000       2.10969000       0.00481600      -0.00721200      -0.00100400
V        1.74048000       9.73777000       4.09095000       0.00714700      -0.00392100      -0.00221800
V        4.42477000      -4.91756000       8.57141000      -0.01913500       0.01144700      -0.02270100
V        6.92117000       2.41859000       0.05754000       0.03518700      -0.00561100       0.00899100
V        6.04311000       1.23048000       2.11934000      -0.04002400       0.00338500      -0.00556700
V        5.19696000       0.03825000       4.18835000      -0.00505500      -0.00585000       0.00876600
V        4.16102000      -1.08815000       6.14589000      -0.01052700       0.00576600      -0.01460600
V        6.04737000       4.86348000       0.01540000       0.00363100      -0.01455500      -0.00164100
V        5.17620000       3.66947000       2.11503000      -0.00117700       0.00284800       0.01559600
V        4.32160000       2.47235000       4.21569000       0.02263000       0.01723300       0.00819600
V        3.44256000       1.27923000       6.33913000       0.00542900      -0.01146100       0.00287200
V        2.50417000       0.08278000       8.46948000      -0.00075400       0.00108100       0.00803800
V        5.17072000       7.31146000       0.02498000       0.00589700      -0.00405900       0.01081700
V        4.32138000       6.08872000       2.12507000      -0.00575700       0.00700500      -0.00857500
V        3.45783000       4.88443000       4.22254000       0.01358100      -0.00669800      -0.00426200
V        2.60011000       3.66493000       6.34125000      -0.01622800      -0.01410000      -0.03546900
V        1.73771000       2.46268000       8.47499000      -0.00052100      -0.00257800       0.00907600
V        4.31854000       9.74056000       0.01177000      -0.01356600      -0.00896500      -0.00307400
V        3.46804000       8.51538000       2.11317000       0.00843200      -0.00630900       0.00556200
V        2.59875000       7.30192000       4.24499000      -0.00572000      -0.00655100       0.01191100
V        1.77237000       6.05877000       6.37204000       0.01644000       0.00682100       0.03124400
V        0.88025000       4.85082000       8.46547000      -0.00007400      -0.00665000      -0.00374400
V       10.37801000       0.03721000       0.03481000       0.00619700       0.04108600      -0.01815200
V        9.51210000      -1.21267000       2.13807000       0.01347600       0.00572300      -0.00990400
V        8.64189000      -2.42704000       4.26989000       0.00466200       0.00864100       0.01146800
V        7.85944000      -3.70304000       6.46931000      -0.01713000       0.01117300      -0.02502600
V        8.68010000       1.25028000       2.08820000       0.01692000       0.00035300       0.00070700
V        7.82172000       0.03738000       4.19319000       0.02636900      -0.00400100       0.00372500
V        8.70637000       4.81282000       0.11404000      -0.02268700       0.01552200      -0.02078900
V        7.76395000       3.66256000       2.15393000      -0.00634100      -0.00248400       0.00592500
V        6.93094000       2.45913000       4.23069000       0.00584000       0.00350000       0.00591000
V        6.05934000       1.33936000       6.29351000       0.00576000       0.00377800       0.00285700
V        7.77393000       7.30183000       0.01733000       0.01451300       0.00254000      -0.00121100
V        6.90515000       6.08852000       2.12139000      -0.00189600       0.00133700       0.01141800
V        6.05557000       4.88553000       4.23802000       0.00147300       0.00758800      -0.00416400
V        5.19740000       3.68546000       6.35719000       0.00907200       0.00029400       0.00437700
V        4.32134000       2.51351000       8.48652000       0.01150800       0.00541000       0.02181800
V        6.89849000       9.75086000       0.02680000      -0.00114000       0.01495200       0.00912800
V        6.04371000       8.52119000       2.12723000      -0.00806500       0.00168200      -0.00865200
V        5.17958000       7.30848000       4.23752000       0.00900200      -0.00571800      -0.00218100
V        4.34935000       6.07712000       6.34214000       0.00016700      -0.00676000      -0.00419100
V        3.46340000       4.93950000       8.48613000       0.00607600       0.00914700       0.01510600
Cr      -0.81808000       2.42173000       0.04336000       0.01142300      -0.00761100       0.01507000
Cr      -4.18714000      -2.45891000       8.50824000      -0.01075000       0.01011100      -0.01600000
Cr      -1.65615000       4.86580000       0.08685000      -0.01174400       0.01148600      -0.01177700
Cr       2.67195000       7.22705000       8.51520000      -0.01400300       0.00877300      -0.01731200
Cr       9.51932000       2.38557000       0.11758000      -0.01450200       0.00949300      -0.01350900
Ti       5.17404000      -3.63153000       6.33146000       0.00606600       0.04974800       0.03817600
Ti       3.45277000      -2.41437000       8.44223000       0.05493600       0.01323700      -0.02432600
Ti       6.89726000      -1.19639000       6.33382000      -0.04286000      -0.02197600       0.03525100
Ti       6.23120000      -2.55220000       8.68151000      -0.00648300       0.00284300      -0.00966300
Ti       5.17614000       0.02048000       8.44428000       0.00614000      -0.05493100      -0.02451100
