125
Lattice="13.002903728225448 -0.009255746979815498 0.02985436048510635 -4.3430024538978165 12.242781786512072 -0.02221962293537814 -4.3055893186509335 -6.127411939181864 10.626069933025846" Properties=species:S:1:pos:R:3:forces:R:3 energy=-1119.5167144729298 free_energy=-1119.5167144729298 stress="-0.0003644720754099428 8.297870235059555e-05 0.00027359383494555896 8.297870235059555e-05 -0.0007225615048301608 4.6167199071613124e-05 0.00027359383494555896 4.6167199071613124e-05 -0.00014340046073569782" pbc="T T T"
V        0.02959688       0.04312335       0.05408248       0.00055905      -0.00058753       0.00057388
V       -0.86712500      -1.21992787       2.12145942       0.00025867       0.00032192       0.00002376
V       11.28256621      -2.45148542       4.26139396      -0.00026500      -0.00029566       0.00011627
V       -6.89935669       8.56800516       6.33792135       0.00029385      -0.00011546      -0.00036390
V       -3.46732513      -4.86533604       8.53816320       0.00026343      -0.00022024       0.00041139
V       -1.65917183       1.23710724       2.12523401       0.00042522      -0.00047655       0.00075657
V       -2.56807124       0.02279911       4.22992872       0.00011196       0.00017079      -0.00026574
V       -3.40362444      -1.23168493       6.40431240       0.00010530      -0.00002777       0.00007376
V       -2.56181673       3.66628186       2.08150838       0.00037421      -0.00030665       0.00032312
V       -3.43174234       2.47334620       4.23316546      -0.00027776       0.00025642      -0.00001259
V       -4.29535362       1.20457288       6.37682400       0.00006919       0.00017107       0.00026645
V       -5.10556907      -0.06542208       8.59173437      -0.00070640      -0.00086234      -0.00005601
V       -2.56773346       7.34814352       0.03140179       0.00006688       0.00006013       0.00014608
V       -3.47242575       6.14500356       2.13738203      -0.00032042       0.00030692       0.00032686
V       -4.31274562       4.90426826       4.23781127      -0.00005190      -0.00001032      -0.00000779
V       -5.15903336       3.68363479       6.38264506      -0.00041989      -0.00012804      -0.00027924
V       -6.04405761       2.44161531       8.52118393       0.00031971      -0.00000295      -0.00003069
V       -3.47165810       9.83306502      -0.00989436      -0.00010409       0.00033366       0.00001994
V        8.65359037       8.57901352       2.13770911      -0.00016225      -0.00036408      -0.00004952
V        7.79947167       7.32075103       4.26826246      -0.00024596       0.00008948      -0.00023124
V       -6.05089742       6.13332017       6.36862961      -0.00001546      -0.00003601      -0.00004477
V       -6.90633086       4.93090785       8.49443632      -0.00000218       0.00002870      -0.00039735
V        2.61239362       0.01004493      -0.00858550      -0.00021762       0.00014636       0.00030678
V        1.73860832      -1.22531644       2.11221702       0.00034577      -0.00027766       0.00037904
V       -3.49691190       9.78037833       4.21694059       0.00003865       0.00026384      -0.00011648
V        0.00165703      -3.68664878       6.39784252      -0.00002854      -0.00043411      -0.00041566
V       -0.85732622      -4.90104784       8.51806963      -0.00002042      -0.00006163      -0.00038997
V        1.72124390       2.43189477       0.05590086       0.00069394      -0.00037972       0.00060082
V        0.90895800       1.21412314       2.16597270      -0.00022704       0.00017533      -0.00028614
V       -0.00754315       0.00975113       4.25387740       0.00025694      -0.00023824       0.00044394
V       -0.83642904      -1.20798838       6.36634933      -0.00018295       0.00033044      -0.00055581
V       -1.79557233      -2.45638027       8.53171861      -0.00053738      -0.00015724       0.00021700
V        0.84091751       4.86901777      -0.00154795       0.00028650      -0.00034182       0.00038849
V        0.03243894       3.62620769       2.12730522       0.00057207      -0.00032873       0.00073990
V       -0.86416269       2.46829780       4.25456292       0.00021850      -0.00016876      -0.00030662
V       -1.71808849       1.25437045       6.36929852      -0.00029010       0.00005582       0.00031045
V       -2.55329339       0.02910965       8.50242736       0.00029542       0.00045239      -0.00008853
V        0.02120279       7.37992573      -0.00133895       0.00024520       0.00050435      -0.00000151
V       -0.87418788       6.06424462       2.05487996      -0.00005164      -0.00046472      -0.00034904
V       -1.72476527       4.88481237       4.23425833      -0.00035310       0.00014764       0.00000808
V       -2.58386651       3.68345490       6.37878904      -0.00022090       0.00016997      -0.00006740
V       -3.45006748       2.44365319       8.49631621      -0.00014773      -0.00000600      -0.00011717
V       -5.16822730       3.69335816      10.59936693       0.00018942      -0.00026097      -0.00026129
V       -1.73191417       8.59685281       2.11678849      -0.00034872       0.00043643      -0.00033538
V       -2.59491113       7.32234883       4.23451295      -0.00055897      -0.00010449       0.00020142
V       -3.44234213       6.10905533       6.38401569      -0.00001701       0.00039412      -0.00026209
V       -4.30367798       4.89957917       8.48826403      -0.00005989       0.00004129      -0.00028909
V        0.89069755      -6.12478054      10.62323467       0.00032404      -0.00010287      -0.00025098
V        0.01352648      11.02118965       2.06781040      -0.00020791       0.00018233       0.00003892
V       -0.88430333       9.76889492       4.17718873       0.00019407       0.00024390       0.00044580
V       -1.84722087       8.50670528       6.30236983      -0.00038515      -0.00018727      -0.00022613
V        1.77971941      -4.88428356       8.54627177       0.00009637      -0.00029160      -0.00003996
V        4.31536883       2.45587747       0.01596262      -0.00033724       0.00001152       0.00001090
V        3.48746717       1.24506695       2.11435104       0.00039229      -0.00018461       0.00036111
V        2.58652880       0.03005487       4.22121352       0.00048999      -0.00035939       0.00057402
V        1.67856746      -1.21578161       6.38236420       0.00053256      -0.00000313      -0.00001732
V        0.81362205      -2.47101192       8.55805520       0.00002155       0.00035104      -0.00052505
V        3.45050839       4.90600183       0.01969380      -0.00002871       0.00034550      -0.00015374
V        2.61455744       3.69784298       2.12493613      -0.00024618      -0.00032677      -0.00001838
V        1.74141994       2.47936323       4.25548833       0.00030429      -0.00012057       0.00042451
V        0.84805209       1.25928800       6.39159977       0.00000767       0.00000828      -0.00029334
V        0.00422358       0.00478185       8.53178789      -0.00003311       0.00057691       0.00020264
V        2.60181165       7.34830871       0.00470024       0.00002224       0.00002337      -0.00004617
V        1.74532521       6.11147742       2.10983258       0.00007680       0.00028893      -0.00024203
V        0.87610669       4.88725972       4.23281430      -0.00011732      -0.00014749      -0.00029110
V       -0.00234981       3.67800641       6.37044656      -0.00013290       0.00022878       0.00032479
V       -0.85695933       2.46502275       8.52708424      -0.00021454       0.00016933      -0.00017584
V       -2.55028007       3.66233973      10.60417470      -0.00013423       0.00011638      -0.00028737
V        0.88617822       8.55296283       2.10332675       0.00042434       0.00023523      -0.00037398
V        0.01060472       7.27023839       4.19578745      -0.00027578       0.00049077      -0.00017470
V       -0.81436125       6.12238924       6.38005098      -0.00013894      -0.00012259       0.00024227
V       -1.70169591       4.91481142       8.49718890      -0.00002735       0.00009250      -0.00009879
V        3.45158291      12.22684362       0.00100699      -0.00033137      -0.00033628      -0.00000060
V        6.97856454      -1.22064658       2.12664500      -0.00012840      -0.00046501      -0.00036244
V        1.76778994       9.78448087       4.08931971       0.00000566      -0.00005628      -0.00048307
V        4.45714156      -4.93436966       8.61841281       0.00062851       0.00092825       0.00000100
V        6.96102126       2.43189122       0.05918260       0.00003536      -0.00005102       0.00012121
V        6.06333489       1.23087337       2.14239465      -0.00054704       0.00020852      -0.00033695
V        5.24204265       0.04374228       4.20098746      -0.00019916      -0.00026503       0.00042312
V        4.15335172      -1.07331263       6.14147684      -0.00081321       0.00050780      -0.00101144
V        6.08742343       4.87454881       0.02045585       0.00009762       0.00019417       0.00024835
V        5.19852396       3.69933483       2.13487680       0.00032849       0.00026508      -0.00004459
V        4.35908380       2.50040372       4.24212889      -0.00023646      -0.00007138      -0.00012942
V        3.46171508       1.30320230       6.38487705       0.00014939      -0.00050066      -0.00004805
V        2.49788403       0.09625691       8.54136193      -0.00046097       0.00031171       0.00001706
V        5.21111399       7.34929086       0.03404265      -0.00002728       0.00001567      -0.00050781
V        4.34956333       6.13442440       2.13409052      -0.00004109       0.00023329      -0.00016267
V        3.48494040       4.91068293       4.23552288       0.00020599       0.00036154       0.00012381
V        2.61588231       3.66833989       6.36941516      -0.00037807       0.00007190      -0.00058462
V        1.75216330       2.47488917       8.53450110      -0.00054373      -0.00019183       0.00017651
V        4.34196805       9.80691720       0.00604903      -0.00001450      -0.00003191      -0.00004105
V        3.49640278       8.56172899       2.13615441      -0.00039472       0.00027892      -0.00002726
V        2.61080641       7.33308664       4.28316227       0.00030723       0.00004029      -0.00002343
V        1.78239941       6.09272226       6.40843092       0.00008142      -0.00003814       0.00010140
V        0.87629334       4.87534210       8.50491673      -0.00025783      -0.00038397      -0.00007071
V       10.43870531       0.05020210       0.02489018       0.00035289      -0.00019248       0.00035173
V        9.56921406      -1.21576159       2.13505476      -0.00030177      -0.00013212      -0.00022652
V        8.70518774      -2.43637975       4.30648370       0.00004848      -0.00028939      -0.00000416
V        7.89484074      -3.71924717       6.51385509      -0.00066606       0.00048074       0.00079394
V        8.74038579       1.26782426       2.08171556       0.00044651       0.00018942      -0.00039560
V        7.89932458       0.03358185       4.22038882      -0.00062739       0.00011467      -0.00013635
V        8.76485546       4.83741475       0.10024158       0.00058755      -0.00039192      -0.00084170
V        7.79678627       3.68782816       2.16597032      -0.00036490       0.00020172       0.00032641
V        6.97999554       2.47065828       4.26128995      -0.00008147       0.00054791       0.00025702
V        6.11346247       1.37440898       6.32792195       0.00002881       0.00046454      -0.00027617
V        7.83830759       7.34865028       0.02241093      -0.00013798      -0.00013984       0.00024997
V        6.95235850       6.12082622       2.12787421      -0.00005347       0.00003508      -0.00016666
V        6.10303370       4.92537048       4.26610933      -0.00014158       0.00019455      -0.00020648
V        5.23469042       3.70583195       6.40239518       0.00042812       0.00015552      -0.00041146
V        4.35885200       2.53851011       8.56279787      -0.00029362      -0.00015773      -0.00058654
V        6.93030241       9.82181662       0.02370215      -0.00033669      -0.00008386      -0.00018121
V        6.07246891       8.56728375       2.13611661      -0.00024276       0.00000279      -0.00016526
V        5.20520325       7.35618617       4.26890882      -0.00010805       0.00008947      -0.00003069
V        4.37081422       6.11041329       6.36562309       0.00021938      -0.00019643      -0.00036579
V        3.47595006       4.99050379       8.53672406      -0.00006347       0.00060812       0.00025294
Cr      -0.81272244       2.42933782       0.05669997       0.00020706      -0.00018302       0.00023110
Cr      -4.21368113      -2.47224409       8.55553094      -0.00025021      -0.00005807       0.00014857
Cr      -1.66778535       4.89891440       0.08667566      -0.00002046      -0.00023073      -0.00017627
Cr       2.68422689       7.27149058       8.56121511       0.00001925       0.00024332       0.00015875
Cr       9.57297570       2.40101872       0.11536917       0.00023204       0.00010414      -0.00013106
Ti       5.19645734      -3.63429729       6.36625676       0.00070044       0.00078530       0.00165608
Ti       3.47774035      -2.41952529       8.47285234       0.00196615      -0.00007169       0.00015658
Ti       6.91710963      -1.20366176       6.36721118      -0.00051927      -0.00098293       0.00168484
Ti       6.26072621      -2.56303766       8.72256956      -0.00000814       0.00000925       0.00001989
Ti       5.19825847       0.01209059       8.47447377       0.00075141      -0.00185978       0.00017269
