 vasp.6.4.2 20Jul23 (build Sep 20 2024 16:56:05) complex                         
 executed on              LinuxNV date 2025.04.25  16:34:55
 running    4 mpi-ranks, with    8 threads/rank, on    1 nodes
 distrk:  each k-point on    4 cores,    1 groups
 distr:  one band on NCORE=   1 cores,    4 groups
 OpenACC runtime initialized ...    4 GPUs detected


--------------------------------------------------------------------------------------------------------


 INCAR:
   ENCUT = 520.000000
   POTIM = 0.200000
   SIGMA = 0.200000
   EDIFF = 1.00e-06
   EDIFFG = -1.00e-02
   ALGO = Normal
   GGA = PE
   PREC = Accurate
   IBRION = 2
   ISIF = 2
   ISMEAR = 1
   LORBIT = 11
   NELM = 100
   NSW = -1
   LCHARG = .TRUE.
   LWAVE = .FALSE.
   LREAL = .FALSE.

 POTCAR:    PAW_PBE Cr_pv 02Aug2007               
 POTCAR:    PAW_PBE Ti_pv 07Sep2000               
 POTCAR:    PAW_PBE V_pv 07Sep2000                
 POTCAR:    PAW_PBE W_sv 04Sep2015                
 POTCAR:    PAW_PBE Zr_sv 04Jan2005               
 POTCAR:    PAW_PBE Cr_pv 02Aug2007               
   SHA256 =  c9a7df34d3cdbacf1090e328ef39c0b420964e11c23f63548d1ac9dd218cdba0 Cr_pv/POTCAR          
   COPYR  = (c) Copyright 02Aug2007 Georg Kresse                                                    
   COPYR  = This file is part of the software VASP. Any use, copying, and all other rights are regul
   COPYR  = If you do not have a valid VASP license, you may not use, copy or distribute this file. 
   VRHFIN =Cr : p6d5s1                                                                              
   LEXCH  = PE                                                                                      
   EATOM  =  1647.9177 eV,  121.1185 Ry                                                             
                                                                                                    
   TITEL  = PAW_PBE Cr_pv 02Aug2007                                                                 
   LULTRA =        F    use ultrasoft PP ?                                                          
   IUNSCR =        1    unscreen: 0-lin 1-nonlin 2-no                                               
   RPACOR =    2.080    partial core radius                                                         
   POMASS =   51.996; ZVAL   =   12.000    mass and valenz                                          
   RCORE  =    2.300    outmost cutoff radius                                                       
   RWIGS  =    2.500; RWIGS  =    1.323    wigner-seitz radius (au A)                               
   ENMAX  =  265.681; ENMIN  =  199.261 eV                                                          
   ICORE  =        3    local potential                                                             
   LCOR   =        T    correct aug charges                                                         
   LPAW   =        T    paw PP                                                                      
   EAUG   =  519.424                                                                                
   DEXC   =    0.000                                                                                
   RMAX   =    2.356    core radius for proj-oper                                                   
   RAUG   =    1.300    factor for augmentation sphere                                              
   RDEP   =    2.447    radius for radial grids                                                     
   RDEPT  =    1.882    core radius for aug-charge                                                  
                                                                                                    
   Atomic configuration                                                                             
    8 entries                                                                                       
     n  l   j            E        occ.                                                              
     1  0  0.50     -5880.4963   2.0000                                                             
     2  0  0.50      -667.0865   2.0000                                                             
     2  1  1.50      -560.6250   6.0000                                                             
     3  0  0.50       -73.9860   2.0000                                                             
     3  1  1.50       -45.4378   6.0000                                                             
     3  2  2.50        -2.9137   5.0000                                                             
     4  0  0.50        -4.0071   1.0000                                                             
     4  3  2.50        -1.3606   0.0000                                                             
   Description                                                                                      
     l       E           TYP  RCUT    TYP  RCUT                                                     
     1    -45.4377911     23  2.000                                                                 
     1      1.3605826     23  2.000                                                                 
     2     -2.9136672     23  2.300                                                                 
     2     -4.2742498     23  2.300                                                                 
     0     -4.0071320     23  2.300                                                                 
     0      9.4498803     23  2.300                                                                 
     3      2.7211652     23  2.300                                                                 
  local pseudopotential read in
  partial core-charges read in
  partial kinetic energy density read in
  atomic valenz-charges read in
  non local Contribution for L=            1  read in
    real space projection operators read in
  non local Contribution for L=            1  read in
    real space projection operators read in
  non local Contribution for L=            2  read in
    real space projection operators read in
  non local Contribution for L=            2  read in
    real space projection operators read in
  non local Contribution for L=            0  read in
    real space projection operators read in
  non local Contribution for L=            0  read in
    real space projection operators read in
    PAW grid and wavefunctions read in
 
   number of l-projection  operators is LMAX  =            6
   number of lm-projection operators is LMMAX =           18
 
 POTCAR:    PAW_PBE Ti_pv 07Sep2000               
   SHA256 =  f757a1b2c6d082f4c628fa3d987464a8763bf92e53844ac0500b0e2ddc9ce5c0 Ti_pv/POTCAR          
   COPYR  = (c) Copyright 07Sep2000 Georg Kresse                                                    
   COPYR  = This file is part of the software VASP. Any use, copying, and all other rights are regul
   COPYR  = If you do not have a valid VASP license, you may not use, copy or distribute this file. 
   VRHFIN =Ti: d3 s1                                                                                
   LEXCH  = PE                                                                                      
   EATOM  =  1042.5995 eV,   76.6289 Ry                                                             
                                                                                                    
   TITEL  = PAW_PBE Ti_pv 07Sep2000                                                                 
   LULTRA =        F    use ultrasoft PP ?                                                          
   IUNSCR =        1    unscreen: 0-lin 1-nonlin 2-no                                               
   RPACOR =    2.200    partial core radius                                                         
   POMASS =   47.880; ZVAL   =   10.000    mass and valenz                                          
   RCORE  =    2.500    outmost cutoff radius                                                       
   RWIGS  =    2.500; RWIGS  =    1.323    wigner-seitz radius (au A)                               
   ENMAX  =  222.335; ENMIN  =  166.751 eV                                                          
   RCLOC  =    1.701    cutoff for local pot                                                        
   LCOR   =        T    correct aug charges                                                         
   LPAW   =        T    paw PP                                                                      
   EAUG   =  482.848                                                                                
   DEXC   =    0.000                                                                                
   RMAX   =    2.564    core radius for proj-oper                                                   
   RAUG   =    1.300    factor for augmentation sphere                                              
   RDEP   =    2.538    radius for radial grids                                                     
   RDEPT  =    1.952    core radius for aug-charge                                                  
                                                                                                    
   Atomic configuration                                                                             
    8 entries                                                                                       
     n  l   j            E        occ.                                                              
     1  0  0.50     -4865.3608   2.0000                                                             
     2  0  0.50      -533.1368   2.0000                                                             
     2  1  1.50      -440.5031   6.0000                                                             
     3  0  0.50       -59.3186   2.0000                                                             
     3  1  1.50       -35.7012   6.0000                                                             
     3  2  2.50        -1.9157   3.0000                                                             
     4  0  0.50        -3.7291   1.0000                                                             
     4  3  2.50        -1.3606   0.0000                                                             
   Description                                                                                      
     l       E           TYP  RCUT    TYP  RCUT                                                     
     1    -35.7012140     23  2.300                                                                 
     1     -1.3605826     23  2.300                                                                 
     2     -1.9156996     23  2.500                                                                 
     2     -0.4063033     23  2.500                                                                 
     0     -3.7290856     23  2.500                                                                 
     0     20.4087390     23  2.500                                                                 
  local pseudopotential read in
  partial core-charges read in
  partial kinetic energy density read in
  atomic valenz-charges read in
  non local Contribution for L=            1  read in
    real space projection operators read in
  non local Contribution for L=            1  read in
    real space projection operators read in
  non local Contribution for L=            2  read in
    real space projection operators read in
  non local Contribution for L=            2  read in
    real space projection operators read in
  non local Contribution for L=            0  read in
    real space projection operators read in
  non local Contribution for L=            0  read in
    real space projection operators read in
    PAW grid and wavefunctions read in
 
   number of l-projection  operators is LMAX  =            6
   number of lm-projection operators is LMMAX =           18
 
 POTCAR:    PAW_PBE V_pv 07Sep2000                
   SHA256 =  1175d3c8cb4ffd1d150a520fa74fae5c3ec72c0849b5615a94a5372dd2cf07f7 V_pv/POTCAR           
   COPYR  = (c) Copyright 07Sep2000 Georg Kresse                                                    
   COPYR  = This file is part of the software VASP. Any use, copying, and all other rights are regul
   COPYR  = If you do not have a valid VASP license, you may not use, copy or distribute this file. 
   VRHFIN =V: p6 d4 s1                                                                              
   LEXCH  = PE                                                                                      
   EATOM  =  1321.6206 eV,   97.1364 Ry                                                             
                                                                                                    
   TITEL  = PAW_PBE V_pv 07Sep2000                                                                  
   LULTRA =        F    use ultrasoft PP ?                                                          
   IUNSCR =        1    unscreen: 0-lin 1-nonlin 2-no                                               
   RPACOR =    1.700    partial core radius                                                         
   POMASS =   50.941; ZVAL   =   11.000    mass and valenz                                          
   RCORE  =    2.300    outmost cutoff radius                                                       
   RWIGS  =    2.300; RWIGS  =    1.217    wigner-seitz radius (au A)                               
   ENMAX  =  263.673; ENMIN  =  197.755 eV                                                          
   RCLOC  =    1.779    cutoff for local pot                                                        
   LCOR   =        T    correct aug charges                                                         
   LPAW   =        T    paw PP                                                                      
   EAUG   =  598.473                                                                                
   DEXC   =    0.000                                                                                
   RMAX   =    2.359    core radius for proj-oper                                                   
   RAUG   =    1.300    factor for augmentation sphere                                              
   RDEP   =    2.430    radius for radial grids                                                     
   RDEPT  =    1.700    core radius for aug-charge                                                  
                                                                                                    
   Atomic configuration                                                                             
    8 entries                                                                                       
     n  l   j            E        occ.                                                              
     1  0  0.50     -5360.7193   2.0000                                                             
     2  0  0.50      -598.4546   2.0000                                                             
     2  1  1.50      -499.0155   6.0000                                                             
     3  0  0.50       -66.5711   2.0000                                                             
     3  1  1.50       -40.5282   6.0000                                                             
     3  2  2.50        -2.4291   4.0000                                                             
     4  0  0.50        -3.8743   1.0000                                                             
     4  3  2.50        -1.3606   0.0000                                                             
   Description                                                                                      
     l       E           TYP  RCUT    TYP  RCUT                                                     
     1    -40.5282431     23  2.000                                                                 
     1      5.4423304     23  2.000                                                                 
     2     -2.4290905     23  2.300                                                                 
     2     -1.0472488     23  2.300                                                                 
     0     -3.8742754     23  2.300                                                                 
     0     27.2116520     23  2.300                                                                 
  local pseudopotential read in
  partial core-charges read in
  partial kinetic energy density read in
  atomic valenz-charges read in
  non local Contribution for L=            1  read in
    real space projection operators read in
  non local Contribution for L=            1  read in
    real space projection operators read in
  non local Contribution for L=            2  read in
    real space projection operators read in
  non local Contribution for L=            2  read in
    real space projection operators read in
  non local Contribution for L=            0  read in
    real space projection operators read in
  non local Contribution for L=            0  read in
    real space projection operators read in
    PAW grid and wavefunctions read in
 
   number of l-projection  operators is LMAX  =            6
   number of lm-projection operators is LMMAX =           18
 
 POTCAR:    PAW_PBE W_sv 04Sep2015                
   SHA256 =  931c2d770f65867ef30f3db3421922900fc0890ebac5c3e12f63b6a2064023d7 W_sv/POTCAR           
   COPYR  = (c) Copyright 04Sep2015 Georg Kresse                                                    
   COPYR  = This file is part of the software VASP. Any use, copying, and all other rights are regul
   COPYR  = If you do not have a valid VASP license, you may not use, copy or distribute this file. 
   VRHFIN =W : 5p6s5d                                                                               
   LEXCH  = PE                                                                                      
   EATOM  =  1865.5791 eV,  137.1162 Ry                                                             
                                                                                                    
   TITEL  = PAW_PBE W_sv 04Sep2015                                                                  
   LULTRA =        F    use ultrasoft PP ?                                                          
   IUNSCR =        1    unscreen: 0-lin 1-nonlin 2-no                                               
   RPACOR =    2.330    partial core radius                                                         
   POMASS =  183.850; ZVAL   =   14.000    mass and valenz                                          
   RCORE  =    2.500    outmost cutoff radius                                                       
   RWIGS  =    2.750; RWIGS  =    1.455    wigner-seitz radius (au A)                               
   ENMAX  =  223.057; ENMIN  =  167.293 eV                                                          
   ICORE  =        3    local potential                                                             
   LCOR   =        T    correct aug charges                                                         
   LPAW   =        T    paw PP                                                                      
   EAUG   =  373.438                                                                                
   DEXC   =    0.000                                                                                
   RMAX   =    2.565    core radius for proj-oper                                                   
   RAUG   =    1.300    factor for augmentation sphere                                              
   RDEP   =    2.539    radius for radial grids                                                     
   RDEPT  =    2.126    core radius for aug-charge                                                  
                                                                                                    
   Atomic configuration                                                                             
   15 entries                                                                                       
     n  l   j            E        occ.                                                              
     1  0  0.50    -69465.5834   2.0000                                                             
     2  0  0.50    -11986.2640   2.0000                                                             
     2  1  1.50    -10479.8613   6.0000                                                             
     3  0  0.50     -2759.0756   2.0000                                                             
     3  1  1.50     -2313.1855   6.0000                                                             
     3  2  2.50     -1801.1183  10.0000                                                             
     4  0  0.50      -567.6789   2.0000                                                             
     4  1  1.50      -421.4692   6.0000                                                             
     4  2  2.50      -236.3471  10.0000                                                             
     4  3  3.50       -31.2665  14.0000                                                             
     5  0  0.50       -77.1084   2.0000                                                             
     6  0  0.50        -5.1438   1.0000                                                             
     5  1  1.50       -41.3856   6.0000                                                             
     5  2  2.50        -3.3185   5.0000                                                             
     5  3  2.50        -1.3606   0.0000                                                             
   Description                                                                                      
     l       E           TYP  RCUT    TYP  RCUT                                                     
     0    -77.1084470     23  2.100                                                                 
     0     -5.1437956     23  2.300                                                                 
     1    -41.3855615     23  2.500                                                                 
     1     -2.7211652     23  2.500                                                                 
     2     -3.3185025     23  2.500                                                                 
     2     -1.5965151     23  2.500                                                                 
     3     -1.3605826     23  2.500                                                                 
  local pseudopotential read in
  partial core-charges read in
  partial kinetic energy density read in
  kinetic energy density of atom read in
  atomic valenz-charges read in
  non local Contribution for L=            0  read in
    real space projection operators read in
  non local Contribution for L=            0  read in
    real space projection operators read in
  non local Contribution for L=            1  read in
    real space projection operators read in
  non local Contribution for L=            1  read in
    real space projection operators read in
  non local Contribution for L=            2  read in
    real space projection operators read in
  non local Contribution for L=            2  read in
    real space projection operators read in
    PAW grid and wavefunctions read in
 
   number of l-projection  operators is LMAX  =            6
   number of lm-projection operators is LMMAX =           18
 
 POTCAR:    PAW_PBE Zr_sv 04Jan2005               
   SHA256 =  25aed69cb10325f9d37c5c68912b61a17387d1f8e4f1d804860ffa10c8a4bf76 Zr_sv/POTCAR          
   COPYR  = (c) Copyright 04Jan2005 Georg Kresse                                                    
   COPYR  = This file is part of the software VASP. Any use, copying, and all other rights are regul
   COPYR  = If you do not have a valid VASP license, you may not use, copy or distribute this file. 
   VRHFIN =Zr: 4s4p5s4d                                                                             
   LEXCH  = PE                                                                                      
   EATOM  =  1284.2219 eV,   94.3876 Ry                                                             
                                                                                                    
   TITEL  = PAW_PBE Zr_sv 04Jan2005                                                                 
   LULTRA =        F    use ultrasoft PP ?                                                          
   IUNSCR =        1    unscreen: 0-lin 1-nonlin 2-no                                               
   RPACOR =    2.200    partial core radius                                                         
   POMASS =   91.224; ZVAL   =   12.000    mass and valenz                                          
   RCORE  =    2.500    outmost cutoff radius                                                       
   RWIGS  =    3.070; RWIGS  =    1.625    wigner-seitz radius (au A)                               
   ENMAX  =  229.898; ENMIN  =  172.424 eV                                                          
   ICORE  =        3    local potential                                                             
   LCOR   =        T    correct aug charges                                                         
   LPAW   =        T    paw PP                                                                      
   EAUG   =  461.257                                                                                
   DEXC   =    0.000                                                                                
   RMAX   =    2.561    core radius for proj-oper                                                   
   RAUG   =    1.300    factor for augmentation sphere                                              
   RDEP   =    2.597    radius for radial grids                                                     
   RDEPT  =    2.007    core radius for aug-charge                                                  
                                                                                                    
   Atomic configuration                                                                             
   11 entries                                                                                       
     n  l   j            E        occ.                                                              
     1  0  0.50    -17820.0161   2.0000                                                             
     2  0  0.50     -2467.0882   2.0000                                                             
     2  1  1.50     -2199.6095   6.0000                                                             
     3  0  0.50      -402.4863   2.0000                                                             
     3  1  1.50      -315.3675   6.0000                                                             
     3  2  2.50      -172.4472  10.0000                                                             
     4  0  0.50       -52.4146   2.0000                                                             
     5  0  0.50        -3.8421   1.0000                                                             
     4  1  1.50       -30.5054   6.0000                                                             
     4  2  2.50        -2.3341   3.0000                                                             
     4  3  2.50        -1.3606   0.0000                                                             
   Description                                                                                      
     l       E           TYP  RCUT    TYP  RCUT                                                     
     0    -52.4145962     23  2.200                                                                 
     0     -3.8421270     23  2.500                                                                 
     1    -30.5053914     23  2.200                                                                 
     1     20.4087390     23  2.200                                                                 
     2     -2.3340816     23  2.500                                                                 
     2     -0.6120942     23  2.500                                                                 
     3     -4.0817478     23  2.500                                                                 
  local pseudopotential read in
  partial core-charges read in
  partial kinetic energy density read in
  atomic valenz-charges read in
  non local Contribution for L=            0  read in
    real space projection operators read in
  non local Contribution for L=            0  read in
    real space projection operators read in
  non local Contribution for L=            1  read in
    real space projection operators read in
  non local Contribution for L=            1  read in
    real space projection operators read in
  non local Contribution for L=            2  read in
    real space projection operators read in
  non local Contribution for L=            2  read in
    real space projection operators read in
    PAW grid and wavefunctions read in
 
   number of l-projection  operators is LMAX  =            6
   number of lm-projection operators is LMMAX =           18
 
 -----------------------------------------------------------------------------
|                                                                             |
|               ----> ADVICE to this user running VASP <----                  |
|                                                                             |
|     You have a (more or less) 'large supercell' and for larger cells it     |
|     might be more efficient to use real-space projection operators.         |
|     Therefore, try LREAL= Auto in the INCAR file.                           |
|     Mind: For very accurate calculation, you might also keep the            |
|     reciprocal projection scheme (i.e. LREAL=.FALSE.).                      |
|                                                                             |
 -----------------------------------------------------------------------------

  PAW_PBE Cr_pv 02Aug2007               :
 energy of atom  1       EATOM=-1647.9177
 kinetic energy error for atom=    0.0057 (will be added to EATOM!!)
  PAW_PBE Ti_pv 07Sep2000               :
 energy of atom  2       EATOM=-1042.5995
 kinetic energy error for atom=    0.0019 (will be added to EATOM!!)
  PAW_PBE V_pv 07Sep2000                :
 energy of atom  3       EATOM=-1321.6206
 kinetic energy error for atom=    0.0054 (will be added to EATOM!!)
  PAW_PBE W_sv 04Sep2015                :
 energy of atom  4       EATOM=-1865.5791
 kinetic energy error for atom=    0.0026 (will be added to EATOM!!)
  PAW_PBE Zr_sv 04Jan2005               :
 energy of atom  5       EATOM=-1284.2219
 kinetic energy error for atom=    0.0043 (will be added to EATOM!!)
 
 
 POSCAR: Cr Ti V  W  Zr
  positions in cartesian coordinates
  No initial velocities read in
 exchange correlation table for  LEXCH =        8
   RHO(1)=    0.500       N(1)  =     2000
   RHO(2)=  100.500       N(2)  =     4000
 


--------------------------------------------------------------------------------------------------------


 ion  position               nearest neighbor table
   1  1.000  0.998  0.197-  35 2.49 118 2.52  17 2.55  22 2.56  40 2.58  45 2.58  18 2.59 103 2.64
                           102 2.93  23 2.94  41 2.97  34 3.00 119 3.00  44 3.04
   2  0.394  0.197  0.194-  39 2.50  66 2.56  44 2.56  71 2.58  63 2.61  67 2.61   3 2.62  14 2.63
                            43 2.98  62 2.98  40 3.02  12 3.05  13 3.07
   3  0.594  0.198  0.193-  84 2.50  62 2.50  87 2.53 111 2.54  13 2.60   2 2.62 107 2.69  12 2.72
                            83 2.93  66 3.01  63 3.03  14 3.10 124 3.20
   4  0.800  0.401  0.801- 109 2.46 112 2.48  88 2.49  31 2.55 117 2.61  30 2.63  92 2.64 108 2.64
                            16 3.01  33 3.02  91 3.02 113 3.04
   5  0.999  0.603  0.196-  31 2.63  32 2.66  35 2.67 109 2.67  59 2.68  54 2.68 114 2.69  27 2.70
                            58 2.95 110 2.97  36 2.98  55 2.99 113 3.01  26 3.04
   6  0.988  0.595  0.597- 116 2.62  33 2.67 111 2.69  32 2.69  37 2.70  29 2.70  61 2.75   8 2.79
                           115 2.95 112 2.97  38 3.04
   7  0.200  0.002  0.601-  46 2.63  60 2.63  69 2.67  19 2.67  36 2.67  64 2.67  41 2.68  42 2.70
                            37 2.97  68 2.98  59 2.99  47 3.00
   8  0.199  0.593  0.595-  28 2.63  82 2.64  51 2.65  55 2.70  60 2.70  56 2.72  10 2.77   6 2.79
                            29 2.96  50 2.97
   9  0.401  0.000  0.398-  80 2.66  58 2.66  41 2.67  64 2.68  63 2.70  85 2.73  67 2.73  88 2.75
                            12 2.88  59 2.99  79 3.03  68 3.05
  10  0.428  0.623  0.622-  96 2.57  81 2.65  78 2.68  77 2.73  73 2.74   8 2.77 101 2.79  98 2.82
                            97 2.89  50 2.94  82 2.96
  11  0.424  0.797  0.999-  82 2.59  84 2.61  75 2.66  56 2.72  79 2.75  99 2.79  62 2.79  78 2.80
                            83 2.85  57 2.96
  12  0.589  0.193  0.397-  67 2.64  63 2.65  14 2.70   3 2.72  88 2.75  85 2.79 112 2.80 124 2.81
                             9 2.88  84 2.89   2 3.05
  13  0.599  0.399  0.195-   3 2.60  66 2.64  90 2.65 110 2.69  71 2.69  94 2.69 115 2.70  14 2.71
                           111 2.82  87 2.92 114 2.98  70 2.98   2 3.07
  14  0.590  0.400  0.398-  72 2.61   2 2.63  95 2.67  91 2.68 111 2.69  12 2.70  13 2.71 116 2.72
                            96 2.91  71 2.95  67 2.95   3 3.10
  15  0.801  0.201  0.999- 108 2.57 107 2.59  27 2.66 102 2.68  21 2.69 123 2.70  87 2.71 109 2.71
                           110 2.96  26 2.99  89 3.01 106 3.01
  16  0.800  0.195  0.609- 108 2.51 105 2.63  30 2.66  88 2.66  24 2.75  85 2.76 124 2.76 112 2.77
                            86 2.93  25 2.95   4 3.01
  17  0.999  0.996  0.002-   1 2.55 102 2.56  34 2.56 122 2.61  39 2.61  44 2.61  21 2.61  20 2.62

  18  0.997  0.998  0.393- 119 2.54  23 2.54 104 2.55   1 2.59  41 2.60  36 2.64  46 2.68  19 2.71

  19  0.995  0.998  0.600-  24 2.51  37 2.54 105 2.54 120 2.61  47 2.63  20 2.65   7 2.67  18 2.71

  20  0.997  0.998  0.802-  38 2.56 106 2.58 121 2.58  43 2.60  25 2.60  17 2.62  42 2.63  19 2.65

  21  0.004  0.197  0.999-  43 2.51  25 2.58 106 2.60  17 2.61  49 2.62  26 2.64  22 2.64  15 2.69

  22  0.001  0.194  0.198- 102 2.54  23 2.56   1 2.56  44 2.60  50 2.63  21 2.64  27 2.65 107 2.65

  23  0.010  0.197  0.397-  45 2.46  18 2.54  22 2.56  51 2.60  28 2.68 124 2.71  24 2.73 103 2.78
                             1 2.94
  24  0.007  0.195  0.603-  19 2.51  46 2.53  52 2.57  25 2.62  29 2.67 104 2.70  23 2.73  16 2.75
                            47 2.92 124 3.07
  25  0.999  0.197  0.801-  21 2.58  20 2.60  48 2.60  47 2.61  24 2.62 108 2.64 105 2.64  30 2.65
                            16 2.95
  26  0.001  0.398  1.000-  30 2.54 108 2.60  48 2.60  27 2.61  54 2.62  21 2.64  31 2.65 109 2.68
                            15 2.99   5 3.04
  27  0.009  0.401  0.202-  55 2.51  28 2.52  49 2.54  26 2.61 110 2.64  22 2.65  15 2.66   5 2.70

  28  0.998  0.396  0.389-  27 2.52 107 2.55  50 2.61  32 2.62   8 2.63  23 2.68 111 2.74  29 2.91
                           124 2.93
  29  0.019  0.409  0.621-  56 2.40  30 2.55  51 2.60 124 2.66  24 2.67   6 2.70  52 2.84 112 2.85
                            28 2.91   8 2.96
  30  0.003  0.403  0.808-  26 2.54  53 2.55  29 2.55   4 2.63  33 2.64  25 2.65  52 2.65  16 2.66
                            31 2.91
  31  0.997  0.597  0.993-  33 2.48   4 2.55  34 2.61  58 2.62  53 2.62   5 2.63  26 2.65 113 2.66
                            30 2.91
  32  1.000  0.600  0.398-  36 2.59 110 2.60 115 2.60  55 2.62  28 2.62  60 2.63   5 2.66   6 2.69

  33  0.003  0.605  0.809-  31 2.48  57 2.54 112 2.58 117 2.62  56 2.63  38 2.63  30 2.64   6 2.67
                             4 3.02
  34  0.002  0.801  1.000-  17 2.56  35 2.57  40 2.57  38 2.58 117 2.59 118 2.60  57 2.60  31 2.61
                             1 3.00
  35  0.000  0.808  0.197-   1 2.49  41 2.53 119 2.57  34 2.57 113 2.63  58 2.63  36 2.66   5 2.67
                           118 2.86  40 2.92
  36  0.997  0.796  0.395-  32 2.59 120 2.62  59 2.62 114 2.62  18 2.64  37 2.66  35 2.66   7 2.67
                             5 2.98
  37  0.003  0.808  0.603-  19 2.54  42 2.57  60 2.59 115 2.61 121 2.64  36 2.66  38 2.67   6 2.70
                             7 2.97
  38  0.001  0.803  0.804-  20 2.56  34 2.58 116 2.59  39 2.62  33 2.63  61 2.63  37 2.67 122 2.69
                             6 3.04
  39  0.201  0.004  0.004-   2 2.50  40 2.58  43 2.59  42 2.59  17 2.61  38 2.62  57 2.65  62 2.66
                            63 2.89
  40  0.197  0.999  0.198-  34 2.57  41 2.57   1 2.58  39 2.58  67 2.59  44 2.61  63 2.61  58 2.63
                            35 2.92   2 3.02
  41  0.196  0.998  0.393-  35 2.53  45 2.57  59 2.57  40 2.57  18 2.60  68 2.65   9 2.67   7 2.68
                             1 2.97
  42  0.199  0.000  0.805-  66 2.53  61 2.57  37 2.57  39 2.59  47 2.61  65 2.63  20 2.63   7 2.70

  43  0.197  0.199  0.999-  21 2.51  66 2.55  48 2.56  39 2.59  44 2.59  20 2.60  71 2.61  47 2.62
                             2 2.98
  44  0.201  0.200  0.198-   2 2.56  43 2.59  22 2.60  49 2.60  40 2.61  72 2.61  17 2.61  45 2.62
                            67 2.89   1 3.04
  45  0.197  0.196  0.395-  23 2.46  67 2.52  41 2.57   1 2.58  44 2.62  50 2.63  46 2.64  73 2.67

  46  0.201  0.203  0.600-  51 2.47  24 2.53  68 2.60  74 2.62   7 2.63  45 2.64  47 2.66  18 2.68

  47  0.199  0.198  0.800-  52 2.57  42 2.61  25 2.61  43 2.62  70 2.62  19 2.63  69 2.64  46 2.66
                            24 2.92   7 3.00
  48  0.199  0.396  0.001-  43 2.56  49 2.59  26 2.60  25 2.60  52 2.62  70 2.63  53 2.63  76 2.64
                            75 2.88
  49  0.201  0.400  0.200-  27 2.54  71 2.56  50 2.59  48 2.59  44 2.60  54 2.61  21 2.62  77 2.62

  50  0.201  0.399  0.397-  72 2.50  49 2.59  28 2.61  22 2.63  45 2.63  55 2.67  51 2.69  10 2.94
                             8 2.97
  51  0.204  0.394  0.602-  46 2.47  73 2.55  29 2.60  23 2.60  78 2.62  52 2.62   8 2.65  50 2.69

  52  0.200  0.396  0.801-  75 2.52  47 2.57  24 2.57  74 2.61  48 2.62  51 2.62  56 2.64  30 2.65
                            29 2.84
  53  0.200  0.598  0.002-  30 2.55  54 2.56  75 2.57  79 2.58  56 2.60  31 2.62  48 2.63  57 2.64

  54  0.204  0.599  0.199-  55 2.55  53 2.56  80 2.59  76 2.59  49 2.61  26 2.62  58 2.63   5 2.68

  55  0.197  0.600  0.391-  27 2.51  54 2.55  81 2.60  32 2.62  59 2.64  77 2.65  50 2.67   8 2.70
                             5 2.99
  56  0.199  0.598  0.804-  29 2.40  53 2.60  78 2.63  33 2.63  52 2.64  61 2.69  11 2.72   8 2.72

  57  0.200  0.800  0.001-  63 2.48  33 2.54  58 2.59  34 2.60  61 2.60  53 2.64  39 2.65  11 2.96

  58  0.196  0.796  0.196-  57 2.59  31 2.62  54 2.63  35 2.63  40 2.63  59 2.64  79 2.65   9 2.66
                             5 2.95
  59  0.203  0.808  0.403-  41 2.57  64 2.62  36 2.62  55 2.64  58 2.64  80 2.65  60 2.67   5 2.68
                            81 2.90   9 2.99   7 2.99
  60  0.198  0.801  0.602-  81 2.58  37 2.59  61 2.62  32 2.63  65 2.63   7 2.63  59 2.67   8 2.70

  61  0.202  0.805  0.805-  82 2.56  42 2.57  62 2.60  57 2.60  60 2.62  38 2.63  56 2.69   6 2.75

  62  0.403  0.004  0.002-   3 2.50  63 2.53  65 2.58  83 2.59  61 2.60  66 2.61  39 2.66  11 2.79
                             2 2.98
  63  0.390  0.994  0.187-  57 2.48  62 2.53  84 2.57   2 2.61  40 2.61  12 2.65  79 2.68   9 2.70
                            39 2.89   3 3.03
  64  0.406  0.004  0.606-  81 2.52  89 2.54  68 2.60  86 2.62  59 2.62  65 2.63   7 2.67   9 2.68
                           123 3.02
  65  0.400  0.002  0.803-  82 2.54  62 2.58  87 2.59  60 2.63  42 2.63  69 2.63  64 2.63 123 2.66

  66  0.391  0.198  0.998-  42 2.53  43 2.55   2 2.56  70 2.58  69 2.61  62 2.61  13 2.64  87 2.66
                             3 3.01
  67  0.391  0.204  0.394-  45 2.52  72 2.57  40 2.59   2 2.61  12 2.64  91 2.66  68 2.70   9 2.73
                            44 2.89  14 2.95
  68  0.398  0.198  0.600-  88 2.60  64 2.60  46 2.60  73 2.61  92 2.64  41 2.65  69 2.65  67 2.70
                             7 2.98   9 3.05
  69  0.404  0.206  0.806-  90 2.53  74 2.60  89 2.60  66 2.61  65 2.63  47 2.64  68 2.65   7 2.67

  70  0.400  0.399  1.000-  75 2.49  66 2.58  90 2.61  74 2.61  47 2.62  94 2.62  48 2.63  71 2.65
                            13 2.98
  71  0.396  0.397  0.200-  49 2.56   2 2.58  76 2.61  43 2.61  72 2.61  70 2.65  95 2.67  13 2.69
                            14 2.95
  72  0.394  0.404  0.401-  50 2.50  67 2.57  77 2.57  14 2.61  71 2.61  44 2.61  73 2.64  96 2.65

  73  0.400  0.399  0.602-  51 2.55  91 2.55  68 2.61  97 2.61  74 2.61  72 2.64  45 2.67  10 2.74

  74  0.402  0.402  0.803-  78 2.54  69 2.60  92 2.60  52 2.61  73 2.61  70 2.61  46 2.62  93 2.65
                            90 2.92
  75  0.390  0.586  0.000-  70 2.49  52 2.52  76 2.54  53 2.57  93 2.62  78 2.64  11 2.66  99 2.70
                            48 2.88
  76  0.401  0.599  0.201-  75 2.54  77 2.58 100 2.58  54 2.59  94 2.59  71 2.61  79 2.61  48 2.64

  77  0.402  0.602  0.399-  80 2.55  72 2.57  76 2.58  95 2.58 101 2.62  49 2.62  55 2.65  10 2.73

  78  0.400  0.597  0.806-  74 2.54  51 2.62  56 2.63  75 2.64  10 2.68  97 2.68  98 2.71  82 2.77
                            11 2.80  93 2.82
  79  0.399  0.796  0.199-  85 2.52  53 2.58  76 2.61  80 2.62  58 2.65  99 2.65  63 2.68  11 2.75
                             9 3.03
  80  0.400  0.796  0.399-  77 2.55  81 2.57  54 2.59 100 2.62  79 2.62  86 2.63  59 2.65   9 2.66

  81  0.391  0.802  0.593-  64 2.52  80 2.57  60 2.58 123 2.59  55 2.60  82 2.64  10 2.65 101 2.73
                            59 2.90
  82  0.393  0.803  0.795-  65 2.54  61 2.56  11 2.59  98 2.63   8 2.64  81 2.64  83 2.71  78 2.77
                           123 2.91  10 2.96
  83  0.602  0.004  0.008- 107 2.54  84 2.56  62 2.59  98 2.63  87 2.65 123 2.66 102 2.71  82 2.71
                            11 2.85 103 2.92   3 2.93
  84  0.596  0.011  0.204-   3 2.50  83 2.56  63 2.57  85 2.61  11 2.61  99 2.73 124 2.74 103 2.76
                            12 2.89
  85  0.600  0.981  0.391- 100 2.44  79 2.52 104 2.58  84 2.61  86 2.67   9 2.73  16 2.76  12 2.79
                            99 2.88 124 3.24
  86  0.601  0.997  0.600- 101 2.60  64 2.62 108 2.62 105 2.62  80 2.63 123 2.67  85 2.67  88 2.69
                            16 2.93
  87  0.596  0.202  0.002-   3 2.53  65 2.59 110 2.61  89 2.63  83 2.65  66 2.66  90 2.68  15 2.71
                            13 2.92 123 3.16
  88  0.605  0.209  0.617-   4 2.49  89 2.51  91 2.58  68 2.60  16 2.66  86 2.69   9 2.75  12 2.75
                            92 2.89
  89  0.599  0.199  0.802-  88 2.51 109 2.54  64 2.54  69 2.60  87 2.63 108 2.64  92 2.65 123 2.74
                            15 3.01
  90  0.598  0.404  0.994-  92 2.52  69 2.53 114 2.56  70 2.61 109 2.62  13 2.65  87 2.68  93 2.76
                            74 2.92
  91  0.595  0.399  0.604-  73 2.55  92 2.56  96 2.58  88 2.58 112 2.59 117 2.65  67 2.66  14 2.68
                             4 3.02
  92  0.599  0.402  0.802-  90 2.52  97 2.55  91 2.56  74 2.60 113 2.61   4 2.64  68 2.64  89 2.65
                           109 2.88  88 2.89
  93  0.597  0.617  0.999-  97 2.55 119 2.59  75 2.62  94 2.63  74 2.65 113 2.70  90 2.76  78 2.82
                            99 2.83
  94  0.599  0.605  0.196-  99 2.56 114 2.58 120 2.59  76 2.59  70 2.62  93 2.63  95 2.65  13 2.69

  95  0.600  0.607  0.399- 100 2.48  77 2.58 121 2.60  94 2.65  96 2.66  71 2.67  14 2.67 115 2.68

  96  0.607  0.598  0.600- 116 2.41  10 2.57  91 2.58 122 2.59  72 2.65 101 2.65  97 2.65  95 2.66
                            14 2.91
  97  0.603  0.598  0.801-  98 2.53  93 2.55  92 2.55 117 2.57  73 2.61  96 2.65 118 2.67  78 2.68
                            10 2.89
  98  0.607  0.805  0.875- 102 2.43  97 2.53  82 2.63  83 2.63 118 2.64  78 2.71  10 2.82 123 2.91

  99  0.600  0.800  0.193-  94 2.56 104 2.58 119 2.64  79 2.65  75 2.70 100 2.71  84 2.73  11 2.79
                            93 2.83  85 2.88 103 2.91
 100  0.600  0.797  0.398-  85 2.44  95 2.48  76 2.58 105 2.60 120 2.62  80 2.62 101 2.68  99 2.71

 101  0.602  0.800  0.604-  86 2.60 121 2.60 106 2.60  77 2.62  96 2.65 100 2.68  81 2.73  10 2.79
                           123 2.94
 102  0.806  1.000  0.005-  98 2.43 103 2.51  22 2.54  17 2.56 118 2.60 106 2.60  15 2.68  83 2.71
                             1 2.93 123 3.07
 103  0.792  0.988  0.187- 102 2.51 119 2.58   1 2.64 104 2.69 107 2.70  84 2.76  23 2.78 118 2.89
                            99 2.91  83 2.92 124 3.24
 104  0.801  0.989  0.395- 120 2.51  18 2.55  99 2.58  85 2.58 103 2.69 105 2.70  24 2.70 124 2.81

 105  0.799  0.991  0.601- 121 2.50  19 2.54 100 2.60  86 2.62 106 2.63  16 2.63  25 2.64 104 2.70

 106  0.801  0.998  0.804- 122 2.57  20 2.58  21 2.60 101 2.60 102 2.60 105 2.63 123 2.64 108 2.65
                            15 3.01
 107  0.800  0.200  0.196-  83 2.54  28 2.55  15 2.59 110 2.62  22 2.65   3 2.69 124 2.70 103 2.70

 108  0.800  0.199  0.802-  16 2.51  15 2.57  26 2.60  86 2.62  25 2.64  89 2.64   4 2.64 106 2.65
                           123 3.11
 109  0.795  0.402  0.987-   4 2.46  89 2.54 113 2.57  90 2.62 110 2.67   5 2.67  26 2.68  15 2.71
                            92 2.88
 110  0.805  0.401  0.194- 111 2.51  32 2.60  87 2.61 107 2.62  27 2.64 114 2.65 109 2.67  13 2.69
                            15 2.96   5 2.97
 111  0.788  0.400  0.379- 110 2.51 115 2.53   3 2.54   6 2.69  14 2.69 124 2.71  28 2.74  13 2.82

 112  0.800  0.409  0.615-   4 2.48  33 2.58  91 2.59 116 2.65  16 2.77  12 2.80  29 2.85 117 2.89
                             6 2.97 124 3.13
 113  0.799  0.603  0.999- 118 2.52 117 2.56 109 2.57 114 2.60  92 2.61  35 2.63  31 2.66  93 2.70
                             5 3.01   4 3.04
 114  0.793  0.599  0.194- 119 2.54  90 2.56  94 2.58 113 2.60  36 2.62 110 2.65 115 2.66   5 2.69
                            13 2.98
 115  0.805  0.606  0.402- 111 2.53 120 2.55  32 2.60  37 2.61 114 2.66  95 2.68  13 2.70 116 2.74
                             6 2.95
 116  0.797  0.608  0.609-  96 2.41 121 2.52 117 2.58  38 2.59   6 2.62 112 2.65  14 2.72 115 2.74

 117  0.801  0.602  0.804- 113 2.56  97 2.57 116 2.58  34 2.59 122 2.60   4 2.61  33 2.62  91 2.65
                           112 2.89
 118  0.807  0.802  0.007-   1 2.52 113 2.52 119 2.57 122 2.59  34 2.60 102 2.60  98 2.64  97 2.67
                            35 2.86 103 2.89
 119  0.804  0.800  0.201-  18 2.54 114 2.54  35 2.57 118 2.57 103 2.58  93 2.59 120 2.60  99 2.64
                             1 3.00
 120  0.799  0.797  0.397- 104 2.51 115 2.55  94 2.59 119 2.60  19 2.61  36 2.62 100 2.62 121 2.69

 121  0.800  0.801  0.603- 105 2.50 116 2.52  20 2.58 101 2.60  95 2.60  37 2.64 122 2.66 120 2.69

 122  0.795  0.799  0.804- 106 2.57  96 2.59 118 2.59 117 2.60  17 2.61 121 2.66  38 2.69
 123  0.595  0.987  0.798-  81 2.59 106 2.64  83 2.66  65 2.66  86 2.67  15 2.70  89 2.74  82 2.91
                            98 2.91 101 2.94  64 3.02 102 3.07 108 3.11  87 3.16
 124  0.814  0.214  0.410-  29 2.66 107 2.70  23 2.71 111 2.71  84 2.74  16 2.76 104 2.81  12 2.81
                            28 2.93  24 3.07 112 3.13   3 3.20 103 3.24  85 3.24
 
  LATTYP: Found a triclinic cell.
 ALAT       =    13.1213514486
 B/A-ratio  =     1.6340986829
 C/A-ratio  =     1.9098641834
 COS(alpha) =     0.0001373337
 COS(beta)  =     0.5223382268
 COS(gamma) =     0.8168369773
  
  Lattice vectors:
  
 A1 = (  -7.5784932810,  -7.5673202570,   7.5810268140)
 A2 = ( -15.1698261740,   0.0039430650,  15.1531463720)
 A3 = (  -7.5128275220, -22.6970494610,  -7.5103213480)


Analysis of symmetry for initial positions (statically):
=====================================================================
 Subroutine PRICEL returns:
 Original cell was already a primitive cell.
 

 Routine SETGRP: Setting up the symmetry group for a 
 triclinic supercell.


 Subroutine GETGRP returns: Found  1 space group operations
 (whereof  1 operations were pure point group operations)
 out of a pool of  2 trial point group operations.


The static configuration has the point symmetry C_1 .


Analysis of symmetry for dynamics (positions and initial velocities):
=====================================================================
 Subroutine PRICEL returns:
 Original cell was already a primitive cell.
 

 Routine SETGRP: Setting up the symmetry group for a 
 triclinic supercell.


 Subroutine GETGRP returns: Found  1 space group operations
 (whereof  1 operations were pure point group operations)
 out of a pool of  2 trial point group operations.


The dynamic configuration has the point symmetry C_1 .


 Subroutine INISYM returns: Found  1 space group operations
 (whereof  1 operations are pure point group operations),
 and found     1 'primitive' translations


----------------------------------------------------------------------------------------

                                     Primitive cell                                     

  volume of cell :    1727.8235

  direct lattice vectors                    reciprocal lattice vectors
    -7.591332893  7.571263322  7.572119558     0.000287796  0.066095611  0.066263809
     7.538506746 -7.580117697  7.528135860     0.066383288  0.000095404  0.066456334
     7.578493281  7.567320257 -7.581026814     0.066207605  0.066112690  0.000270385

  length of vectors
    13.125904083 13.075171042 13.121351449     0.093592761  0.093931860  0.093564993

  position of ions in fractional coordinates (direct lattice)
     0.999676451  0.997692508  0.197086014
     0.393826279  0.197059704  0.193966059
     0.593501133  0.197596892  0.192860126
     0.799727687  0.400974192  0.801017065
     0.999404130  0.602548222  0.196097767
     0.987896899  0.595127527  0.597171652
     0.200008448  0.002377719  0.600509375
     0.198807618  0.592502029  0.594645150
     0.401469635  0.000146877  0.398405369
     0.427723496  0.623495435  0.621616557
     0.423910181  0.797313324  0.998672315
     0.589176494  0.192705521  0.396748129
     0.599385130  0.398991304  0.194667114
     0.590324198  0.399705568  0.398198464
     0.800806509  0.200973581  0.998981963
     0.799890391  0.195204197  0.609152230
     0.999303273  0.996472575  0.002451487
     0.996982868  0.997687564  0.393363733
     0.994636467  0.998283410  0.599584923
     0.996999467  0.997607019  0.802331991
     0.004429398  0.196740276  0.998729808
     0.001460714  0.194421785  0.198199255
     0.010151027  0.197211850  0.396850251
     0.007425127  0.195313657  0.603272065
     0.999362890  0.196742994  0.800707327
     0.001055129  0.397865654  0.999739647
     0.008630436  0.401133711  0.202262807
     0.998315507  0.395581583  0.388930992
     0.018723550  0.408811984  0.621388003
     0.003332354  0.402890826  0.808379921
     0.996891383  0.596935175  0.992817995
     0.999763401  0.599628227  0.398153347
     0.003015420  0.604660019  0.808541645
     0.002296150  0.800793358  0.999869556
     0.000486755  0.807667778  0.196982299
     0.997397281  0.796058108  0.394580460
     0.002656664  0.808134143  0.602819421
     0.001006645  0.803446162  0.803951028
     0.201385458  0.004166852  0.004414098
     0.196652788  0.998725476  0.197925628
     0.195617792  0.998275177  0.393457580
     0.199320951  0.000337137  0.805158751
     0.196586883  0.198528481  0.998832868
     0.200865160  0.199777806  0.197949368
     0.196696345  0.195751617  0.394886218
     0.201473293  0.203446830  0.599835002
     0.198653564  0.197976670  0.800039883
     0.198911866  0.395874105  0.000750357
     0.201337412  0.399591101  0.200490922
     0.201011467  0.399283324  0.397483355
     0.204302584  0.394008182  0.601973958
     0.200333652  0.395672682  0.801178814
     0.199965286  0.598230706  0.002463134
     0.203517510  0.599069997  0.198651091
     0.197388058  0.600346377  0.391479300
     0.199072995  0.597610289  0.803535737
     0.200114552  0.799911905  0.000758052
     0.196143276  0.796279196  0.195576186
     0.203442493  0.807635809  0.403104098
     0.197612045  0.801020719  0.602363630
     0.202218880  0.804515246  0.804559297
     0.403052040  0.003962307  0.001852918
     0.390014040  0.994067940  0.186659602
     0.406020965  0.004038417  0.605622582
     0.399644609  0.002124148  0.803331498
     0.390806408  0.198145506  0.998143038
     0.390984537  0.204001721  0.394275658
     0.397978333  0.198267545  0.599856015
     0.404146949  0.205813479  0.806433086
     0.399571695  0.398583606  0.999858355
     0.395792186  0.397374006  0.200370121
     0.393937684  0.403708674  0.400805467
     0.400439110  0.399325172  0.602274214
     0.401719006  0.402308075  0.802682056
     0.390071400  0.585581339  0.000070327
     0.401286265  0.598727944  0.201259396
     0.402266047  0.602485257  0.399114467
     0.399717340  0.596912766  0.805753368
     0.399283147  0.796486352  0.198791962
     0.400118032  0.796482575  0.398927570
     0.391446664  0.802453788  0.593415930
     0.393027769  0.802771828  0.795272038
     0.602327727  0.003604021  0.008040465
     0.596282536  0.011056364  0.203553754
     0.599790837  0.981112086  0.391220487
     0.601365492  0.997477364  0.600237492
     0.595843538  0.201885995  0.002365604
     0.604881287  0.209424506  0.616686851
     0.598813306  0.199358796  0.802253600
     0.598255065  0.404247485  0.993829602
     0.595463499  0.398814228  0.604138280
     0.599271261  0.401643207  0.801513886
     0.597471472  0.616766957  0.999166453
     0.598650239  0.605096221  0.195948093
     0.600307513  0.607493311  0.398925173
     0.606620436  0.597846274  0.600323749
     0.602632086  0.597994458  0.801336795
     0.606721702  0.804963968  0.875167381
     0.600396748  0.800233599  0.192624726
     0.599546540  0.796642446  0.397756230
     0.601700525  0.800190908  0.603801344
     0.806390219  0.999662591  0.004741064
     0.791965558  0.987761524  0.186919382
     0.800531134  0.989419651  0.395256880
     0.798808562  0.990777420  0.600549380
     0.801330458  0.997714205  0.804062335
     0.800483774  0.199938838  0.196190519
     0.799831260  0.199065545  0.802040481
     0.794639606  0.401942117  0.986981203
     0.804701274  0.401184387  0.193717139
     0.787873911  0.399510825  0.378577638
     0.799545796  0.408503678  0.614548353
     0.798776470  0.603472811  0.999397103
     0.792516643  0.599395494  0.193723294
     0.804906137  0.605937527  0.402294518
     0.796712131  0.608495896  0.608913462
     0.800841372  0.602196840  0.804303479
     0.807134575  0.801584979  0.006569047
     0.803967329  0.799702128  0.201006149
     0.799248958  0.797429945  0.396971241
     0.799668800  0.800651050  0.603470711
     0.795148863  0.799302509  0.804321142
     0.595219399  0.987383756  0.798101848
     0.814352017  0.213713583  0.410400307

  ion indices of the primitive-cell ions
   primitive index   ion index
                 1           1
                 2           2
                 3           3
                 4           4
                 5           5
                 6           6
                 7           7
                 8           8
                 9           9
                10          10
                11          11
                12          12
                13          13
                14          14
                15          15
                16          16
                17          17
                18          18
                19          19
                20          20
                21          21
                22          22
                23          23
                24          24
                25          25
                26          26
                27          27
                28          28
                29          29
                30          30
                31          31
                32          32
                33          33
                34          34
                35          35
                36          36
                37          37
                38          38
                39          39
                40          40
                41          41
                42          42
                43          43
                44          44
                45          45
                46          46
                47          47
                48          48
                49          49
                50          50
                51          51
                52          52
                53          53
                54          54
                55          55
                56          56
                57          57
                58          58
                59          59
                60          60
                61          61
                62          62
                63          63
                64          64
                65          65
                66          66
                67          67
                68          68
                69          69
                70          70
                71          71
                72          72
                73          73
                74          74
                75          75
                76          76
                77          77
                78          78
                79          79
                80          80
                81          81
                82          82
                83          83
                84          84
                85          85
                86          86
                87          87
                88          88
                89          89
                90          90
                91          91
                92          92
                93          93
                94          94
                95          95
                96          96
                97          97
                98          98
                99          99
               100         100
               101         101
               102         102
               103         103
               104         104
               105         105
               106         106
               107         107
               108         108
               109         109
               110         110
               111         111
               112         112
               113         113
               114         114
               115         115
               116         116
               117         117
               118         118
               119         119
               120         120
               121         121
               122         122
               123         123
               124         124

----------------------------------------------------------------------------------------

 
 
 KPOINTS: KPOINTS generated by db_to_vasp         

Automatic generation of k-mesh.
 Grid dimensions read from file:
 generate k-points for:    4    4    4

 Generating k-lattice:

  Cartesian coordinates                     Fractional coordinates (reciprocal lattice)
     0.000071949  0.016523903  0.016565952     0.250000000  0.000000000 -0.000000000
     0.016595822  0.000023851  0.016614084    -0.000000000  0.250000000 -0.000000000
     0.016551901  0.016528173  0.000067596     0.000000000 -0.000000000  0.250000000

  Length of vectors
     0.023398190  0.023482965  0.023391248

  Shift w.r.t. Gamma in fractional coordinates (k-lattice)
     0.000000000  0.000000000  0.000000000

 
 Subroutine IBZKPT returns following result:
 ===========================================
 
 Found     36 irreducible k-points:
 
 Following reciprocal coordinates:
            Coordinates               Weight
  0.000000  0.000000  0.000000      1.000000
  0.250000  0.000000  0.000000      2.000000
  0.500000  0.000000  0.000000      1.000000
  0.000000  0.250000  0.000000      2.000000
  0.250000  0.250000  0.000000      2.000000
  0.500000  0.250000  0.000000      2.000000
 -0.250000  0.250000  0.000000      2.000000
  0.000000  0.500000  0.000000      1.000000
  0.250000  0.500000  0.000000      2.000000
  0.500000  0.500000  0.000000      1.000000
  0.000000  0.000000  0.250000      2.000000
  0.250000  0.000000  0.250000      2.000000
  0.500000  0.000000  0.250000      2.000000
 -0.250000  0.000000  0.250000      2.000000
  0.000000  0.250000  0.250000      2.000000
  0.250000  0.250000  0.250000      2.000000
  0.500000  0.250000  0.250000      2.000000
 -0.250000  0.250000  0.250000      2.000000
  0.000000  0.500000  0.250000      2.000000
  0.250000  0.500000  0.250000      2.000000
  0.500000  0.500000  0.250000      2.000000
 -0.250000  0.500000  0.250000      2.000000
  0.000000 -0.250000  0.250000      2.000000
  0.250000 -0.250000  0.250000      2.000000
  0.500000 -0.250000  0.250000      2.000000
 -0.250000 -0.250000  0.250000      2.000000
  0.000000  0.000000  0.500000      1.000000
  0.250000  0.000000  0.500000      2.000000
  0.500000  0.000000  0.500000      1.000000
  0.000000  0.250000  0.500000      2.000000
  0.250000  0.250000  0.500000      2.000000
  0.500000  0.250000  0.500000      2.000000
 -0.250000  0.250000  0.500000      2.000000
  0.000000  0.500000  0.500000      1.000000
  0.250000  0.500000  0.500000      2.000000
  0.500000  0.500000  0.500000      1.000000
 
 Following cartesian coordinates:
            Coordinates               Weight
  0.000000  0.000000  0.000000      1.000000
  0.000072  0.016524  0.016566      2.000000
  0.000144  0.033048  0.033132      1.000000
  0.016596  0.000024  0.016614      2.000000
  0.016668  0.016548  0.033180      2.000000
  0.016740  0.033072  0.049746      2.000000
  0.016524 -0.016500  0.000048      2.000000
  0.033192  0.000048  0.033228      1.000000
  0.033264  0.016572  0.049794      2.000000
  0.033336  0.033096  0.066360      1.000000
  0.016552  0.016528  0.000068      2.000000
  0.016624  0.033052  0.016634      2.000000
  0.016696  0.049576  0.033200      2.000000
  0.016480  0.000004 -0.016498      2.000000
  0.033148  0.016552  0.016682      2.000000
  0.033220  0.033076  0.033248      2.000000
  0.033292  0.049600  0.049814      2.000000
  0.033076  0.000028  0.000116      2.000000
  0.049744  0.016576  0.033296      2.000000
  0.049815  0.033100  0.049862      2.000000
  0.049887  0.049624  0.066428      2.000000
  0.049672  0.000052  0.016730      2.000000
 -0.000044  0.016504 -0.016546      2.000000
  0.000028  0.033028  0.000019      2.000000
  0.000100  0.049552  0.016585      2.000000
 -0.000116 -0.000020 -0.033112      2.000000
  0.033104  0.033056  0.000135      1.000000
  0.033176  0.049580  0.016701      2.000000
  0.033248  0.066104  0.033267      1.000000
  0.049700  0.033080  0.016749      2.000000
  0.049772  0.049604  0.033315      2.000000
  0.049844  0.066128  0.049881      2.000000
  0.049628  0.016556  0.000183      2.000000
  0.066295  0.033104  0.033363      1.000000
  0.066367  0.049628  0.049929      2.000000
  0.066439  0.066152  0.066495      1.000000
 


--------------------------------------------------------------------------------------------------------




 Dimension of arrays:
   k-points           NKPTS =     36   k-points in BZ     NKDIM =     36   number of bands    NBANDS=    816
   number of dos      NEDOS =    301   number of ions     NIONS =    124
   non local maximal  LDIM  =      6   non local SUM 2l+1 LMDIM =     18
   total plane-waves  NPLWV = 941192
   max r-space proj   IRMAX =      1   max aug-charges    IRDMAX=  31289
   dimension x,y,z NGX =    98 NGY =   98 NGZ =   98
   dimension x,y,z NGXF=   196 NGYF=  196 NGZF=  196
   support grid    NGXF=   196 NGYF=  196 NGZF=  196
   ions per type =               4  12 106   1   1
   NGX,Y,Z   is equivalent  to a cutoff of  12.41, 12.46, 12.42 a.u.
   NGXF,Y,Z  is equivalent  to a cutoff of  24.82, 24.92, 24.83 a.u.

 SYSTEM =  unknown system                          
 POSCAR =  Cr Ti V  W  Zr                          

 Startparameter for this run:
   NWRITE =      2    write-flag & timer
   PREC   = accura    normal or accurate (medium, high low for compatibility)
   ISTART =      0    job   : 0-new  1-cont  2-samecut
   ICHARG =      2    charge: 1-file 2-atom 10-const
   ISPIN  =      1    spin polarized calculation?
   LNONCOLLINEAR =      F non collinear calculations
   LSORBIT =      F    spin-orbit coupling
   INIWAV =      1    electr: 0-lowe 1-rand  2-diag
   LASPH  =      F    aspherical Exc in radial PAW
 Electronic Relaxation 1
   ENCUT  =  520.0 eV  38.22 Ry    6.18 a.u.  24.41 24.31 24.40*2*pi/ulx,y,z
   ENINI  =  520.0     initial cutoff
   ENAUG  =  598.5 eV  augmentation charge cutoff
   NELM   =    100;   NELMIN=  2; NELMDL= -5     # of ELM steps 
   EDIFF  = 0.1E-05   stopping-criterion for ELM
   LREAL  =      F    real-space projection
   NLSPLINE    = F    spline interpolate recip. space projectors
   LCOMPAT=      F    compatible to vasp.4.4
   GGA_COMPAT  = T    GGA compatible to vasp.4.4-vasp.4.6
   LMAXPAW     = -100 max onsite density
   LMAXMIX     =    2 max onsite mixed and CHGCAR
   VOSKOWN=      0    Vosko Wilk Nusair interpolation
   ROPT   =    0.00000   0.00000   0.00000   0.00000
   ROPT   =    0.00000
 Ionic relaxation
   EDIFFG = -.1E-01   stopping-criterion for IOM
   NSW    =     -1    number of steps for IOM
   NBLOCK =      1;   KBLOCK =      1    inner block; outer block 
   IBRION =      2    ionic relax: 0-MD 1-quasi-New 2-CG
   NFREE  =      1    steps in history (QN), initial steepest desc. (CG)
   ISIF   =      2    stress and relaxation
   IWAVPR =     11    prediction:  0-non 1-charg 2-wave 3-comb
   ISYM   =      2    0-nonsym 1-usesym 2-fastsym
   LCORR  =      T    Harris-Foulkes like correction to forces

   POTIM  = 0.2000    time-step for ionic-motion
   TEIN   =    0.0    initial temperature
   TEBEG  =    0.0;   TEEND  =   0.0 temperature during run
   SMASS  =  -3.00    Nose mass-parameter (am)
   estimated Nose-frequenzy (Omega)   =  0.10E-29 period in steps = 0.31E+47 mass=  -0.394E-26a.u.
   SCALEE = 1.0000    scale energy and forces
   NPACO  =    256;   APACO  = 10.0  distance and # of slots for P.C.
   PSTRESS=    0.0 pullay stress

  Mass of Ions in am
   POMASS =  52.00 47.88 50.94183.85 91.22
  Ionic Valenz
   ZVAL   =  12.00 10.00 11.00 14.00 12.00
  Atomic Wigner-Seitz radii
   RWIGS  =  -1.00 -1.00 -1.00 -1.00 -1.00
  virtual crystal weights 
   VCA    =   1.00  1.00  1.00  1.00  1.00
   NELECT =    1360.0000    total number of electrons
   NUPDOWN=      -1.0000    fix difference up-down

 DOS related values:
   EMIN   =  10.00;   EMAX   =-10.00  energy-range for DOS
   EFERMI =   0.00;   METHOD = LEGACY      
   ISMEAR =     1;   SIGMA  =   0.20  broadening in eV -4-tet -1-fermi 0-gaus

 Electronic relaxation 2 (details)
   IALGO  =     38    algorithm
   LDIAG  =      T    sub-space diagonalisation (order eigenvalues)
   LSUBROT=      F    optimize rotation matrix (better conditioning)
   TURBO    =      0    0=normal 1=particle mesh
   IRESTART =      0    0=no restart 2=restart with 2 vectors
   NREBOOT  =      0    no. of reboots
   NMIN     =      0    reboot dimension
   EREF     =   0.00    reference energy to select bands
   IMIX   =      4    mixing-type and parameters
     AMIX     =   0.40;   BMIX     =  1.00
     AMIX_MAG =   1.60;   BMIX_MAG =  1.00
     AMIN     =   0.10
     WC   =   100.;   INIMIX=   1;  MIXPRE=   1;  MAXMIX= -45

 Intra band minimization:
   WEIMIN = 0.0010     energy-eigenvalue tresh-hold
   EBREAK =  0.31E-09  absolut break condition
   DEPER  =   0.30     relativ break condition  

   TIME   =   0.40     timestep for ELM

  volume/ion in A,a.u.               =      13.93        94.03
  Fermi-wavevector in a.u.,A,eV,Ry     =   1.511546  2.856408 31.086197  2.284771
  Thomas-Fermi vector in A             =   2.621589
 
 Write flags
   LWAVE        =      F    write WAVECAR
   LDOWNSAMPLE  =      F    k-point downsampling of WAVECAR
   LCHARG       =      T    write CHGCAR
   LVTOT        =      F    write LOCPOT, total local potential
   LVHAR        =      F    write LOCPOT, Hartree potential only
   LELF         =      F    write electronic localiz. function (ELF)
   LORBIT       =     11    0 simple, 1 ext, 2 COOP (PROOUT), +10 PAW based schemes


 Dipole corrections
   LMONO  =      F    monopole corrections only (constant potential shift)
   LDIPOL =      F    correct potential (dipole corrections)
   IDIPOL =      0    1-x, 2-y, 3-z, 4-all directions 
   EPSILON=  1.0000000 bulk dielectric constant

 Exchange correlation treatment:
   GGA     =    PE    GGA type
   LEXCH   =     8    internal setting for exchange type
   LIBXC   =     F    Libxc                    
   VOSKOWN =     0    Vosko Wilk Nusair interpolation
   LHFCALC =     F    Hartree Fock is set to
   LHFONE  =     F    Hartree Fock one center treatment
   AEXX    =    0.0000 exact exchange contribution

 Linear response parameters
   LEPSILON=     F    determine dielectric tensor
   LRPA    =     F    only Hartree local field effects (RPA)
   LNABLA  =     F    use nabla operator in PAW spheres
   LVEL    =     F    velocity operator in full k-point grid
   CSHIFT  =0.1000    complex shift for real part using Kramers Kronig
   OMEGAMAX=  -1.0    maximum frequency
   DEG_THRESHOLD= 0.2000000E-02 threshold for treating states as degnerate
   RTIME   =   -0.100 relaxation time in fs
  (WPLASMAI=    0.000 imaginary part of plasma frequency in eV, 0.658/RTIME)
   DFIELD  = 0.0000000 0.0000000 0.0000000 field for delta impulse in time
 
  Optional k-point grid parameters
   LKPOINTS_OPT  =     F    use optional k-point grid
   KPOINTS_OPT_MODE=     1    mode for optional k-point grid
 
 Orbital magnetization related:
   ORBITALMAG=     F  switch on orbital magnetization
   LCHIMAG   =     F  perturbation theory with respect to B field
   DQ        =  0.001000  dq finite difference perturbation B field
   LLRAUG    =     F  two centre corrections for induced B field
   LBONE     =     F  B-component reconstruction in AE one-centre
   LVGVCALC  =     T  calculate vGv susceptibility
   LVGVAPPL  =     F  apply vGv susceptibility instead of pGv for G=0

 Random number generation:
   RANDOM_GENERATOR = DEFAULT
   PCG_SEED         = not used


--------------------------------------------------------------------------------------------------------


 conjugate gradient relaxation of ions
 charge density and potential will be updated during run
 non-spin polarized calculation
 Variant of blocked Davidson
 Davidson routine will perform the subspace rotation
 perform sub-space diagonalisation
    after iterative eigenvector-optimisation
 modified Broyden-mixing scheme, WC =      100.0
 initial mixing is a Kerker type mixing with AMIX =  0.4000 and BMIX =      1.0000
 Hartree-type preconditioning will be used
 using additional bands           136
 reciprocal scheme for non local part
 use partial core corrections
 calculate Harris-corrections to forces 
   (improved forces if not selfconsistent)
 use gradient corrections 
 use of overlap-Matrix (Vanderbilt PP)
 Methfessel and Paxton  Order N= 1 SIGMA  =   0.20


--------------------------------------------------------------------------------------------------------


  energy-cutoff  :      520.00
  volume of cell :     1727.82
      direct lattice vectors                 reciprocal lattice vectors
    -7.591332893  7.571263322  7.572119558     0.000287796  0.066095611  0.066263809
     7.538506746 -7.580117697  7.528135860     0.066383288  0.000095404  0.066456334
     7.578493281  7.567320257 -7.581026814     0.066207605  0.066112690  0.000270385

  length of vectors
    13.125904083 13.075171042 13.121351449     0.093592761  0.093931860  0.093564993


 
 k-points in units of 2pi/SCALE and weight: KPOINTS generated by db_to_vasp         
   0.00000000  0.00000000  0.00000000       0.016
   0.00007195  0.01652390  0.01656595       0.031
   0.00014390  0.03304781  0.03313190       0.016
   0.01659582  0.00002385  0.01661408       0.031
   0.01666777  0.01654775  0.03318004       0.031
   0.01673972  0.03307166  0.04974599       0.031
   0.01652387 -0.01650005  0.00004813       0.031
   0.03319164  0.00004770  0.03322817       0.016
   0.03326359  0.01657160  0.04979412       0.031
   0.03333554  0.03309551  0.06636007       0.016
   0.01655190  0.01652817  0.00006760       0.031
   0.01662385  0.03305208  0.01663355       0.031
   0.01669580  0.04957598  0.03319950       0.031
   0.01647995  0.00000427 -0.01649836       0.031
   0.03314772  0.01655202  0.01668168       0.031
   0.03321967  0.03307593  0.03324763       0.031
   0.03329162  0.04959983  0.04981358       0.031
   0.03307577  0.00002812  0.00011573       0.031
   0.04974355  0.01657587  0.03329576       0.031
   0.04981549  0.03309978  0.04986172       0.031
   0.04988744  0.04962368  0.06642767       0.031
   0.04967160  0.00005197  0.01672981       0.031
  -0.00004392  0.01650432 -0.01654649       0.031
   0.00002803  0.03302822  0.00001946       0.031
   0.00009998  0.04955213  0.01658542       0.031
  -0.00011587 -0.00001958 -0.03311244       0.031
   0.03310380  0.03305635  0.00013519       0.016
   0.03317575  0.04958025  0.01670114       0.031
   0.03324770  0.06610415  0.03326710       0.016
   0.04969962  0.03308020  0.01674928       0.031
   0.04977157  0.04960410  0.03331523       0.031
   0.04984352  0.06612800  0.04988118       0.031
   0.04962768  0.01655629  0.00018332       0.031
   0.06629545  0.03310405  0.03336336       0.016
   0.06636740  0.04962795  0.04992931       0.031
   0.06643934  0.06615185  0.06649526       0.016
 
 k-points in reciprocal lattice and weights: KPOINTS generated by db_to_vasp         
   0.00000000  0.00000000  0.00000000       0.016
   0.25000000  0.00000000  0.00000000       0.031
   0.50000000  0.00000000  0.00000000       0.016
   0.00000000  0.25000000  0.00000000       0.031
   0.25000000  0.25000000  0.00000000       0.031
   0.50000000  0.25000000  0.00000000       0.031
  -0.25000000  0.25000000  0.00000000       0.031
   0.00000000  0.50000000  0.00000000       0.016
   0.25000000  0.50000000  0.00000000       0.031
   0.50000000  0.50000000  0.00000000       0.016
   0.00000000  0.00000000  0.25000000       0.031
   0.25000000  0.00000000  0.25000000       0.031
   0.50000000  0.00000000  0.25000000       0.031
  -0.25000000  0.00000000  0.25000000       0.031
   0.00000000  0.25000000  0.25000000       0.031
   0.25000000  0.25000000  0.25000000       0.031
   0.50000000  0.25000000  0.25000000       0.031
  -0.25000000  0.25000000  0.25000000       0.031
   0.00000000  0.50000000  0.25000000       0.031
   0.25000000  0.50000000  0.25000000       0.031
   0.50000000  0.50000000  0.25000000       0.031
  -0.25000000  0.50000000  0.25000000       0.031
   0.00000000 -0.25000000  0.25000000       0.031
   0.25000000 -0.25000000  0.25000000       0.031
   0.50000000 -0.25000000  0.25000000       0.031
  -0.25000000 -0.25000000  0.25000000       0.031
   0.00000000  0.00000000  0.50000000       0.016
   0.25000000  0.00000000  0.50000000       0.031
   0.50000000  0.00000000  0.50000000       0.016
   0.00000000  0.25000000  0.50000000       0.031
   0.25000000  0.25000000  0.50000000       0.031
   0.50000000  0.25000000  0.50000000       0.031
  -0.25000000  0.25000000  0.50000000       0.031
   0.00000000  0.50000000  0.50000000       0.016
   0.25000000  0.50000000  0.50000000       0.031
   0.50000000  0.50000000  0.50000000       0.016
 
 position of ions in fractional coordinates (direct lattice) 
   0.99967645  0.99769251  0.19708601
   0.39382628  0.19705970  0.19396606
   0.59350113  0.19759689  0.19286013
   0.79972769  0.40097419  0.80101707
   0.99940413  0.60254822  0.19609777
   0.98789690  0.59512753  0.59717165
   0.20000845  0.00237772  0.60050938
   0.19880762  0.59250203  0.59464515
   0.40146964  0.00014688  0.39840537
   0.42772350  0.62349543  0.62161656
   0.42391018  0.79731332  0.99867231
   0.58917649  0.19270552  0.39674813
   0.59938513  0.39899130  0.19466711
   0.59032420  0.39970557  0.39819846
   0.80080651  0.20097358  0.99898196
   0.79989039  0.19520420  0.60915223
   0.99930327  0.99647258  0.00245149
   0.99698287  0.99768756  0.39336373
   0.99463647  0.99828341  0.59958492
   0.99699947  0.99760702  0.80233199
   0.00442940  0.19674028  0.99872981
   0.00146071  0.19442178  0.19819926
   0.01015103  0.19721185  0.39685025
   0.00742513  0.19531366  0.60327206
   0.99936289  0.19674299  0.80070733
   0.00105513  0.39786565  0.99973965
   0.00863044  0.40113371  0.20226281
   0.99831551  0.39558158  0.38893099
   0.01872355  0.40881198  0.62138800
   0.00333235  0.40289083  0.80837992
   0.99689138  0.59693518  0.99281799
   0.99976340  0.59962823  0.39815335
   0.00301542  0.60466002  0.80854165
   0.00229615  0.80079336  0.99986956
   0.00048676  0.80766778  0.19698230
   0.99739728  0.79605811  0.39458046
   0.00265666  0.80813414  0.60281942
   0.00100664  0.80344616  0.80395103
   0.20138546  0.00416685  0.00441410
   0.19665279  0.99872548  0.19792563
   0.19561779  0.99827518  0.39345758
   0.19932095  0.00033714  0.80515875
   0.19658688  0.19852848  0.99883287
   0.20086516  0.19977781  0.19794937
   0.19669634  0.19575162  0.39488622
   0.20147329  0.20344683  0.59983500
   0.19865356  0.19797667  0.80003988
   0.19891187  0.39587411  0.00075036
   0.20133741  0.39959110  0.20049092
   0.20101147  0.39928332  0.39748335
   0.20430258  0.39400818  0.60197396
   0.20033365  0.39567268  0.80117881
   0.19996529  0.59823071  0.00246313
   0.20351751  0.59907000  0.19865109
   0.19738806  0.60034638  0.39147930
   0.19907300  0.59761029  0.80353574
   0.20011455  0.79991190  0.00075805
   0.19614328  0.79627920  0.19557619
   0.20344249  0.80763581  0.40310410
   0.19761205  0.80102072  0.60236363
   0.20221888  0.80451525  0.80455930
   0.40305204  0.00396231  0.00185292
   0.39001404  0.99406794  0.18665960
   0.40602096  0.00403842  0.60562258
   0.39964461  0.00212415  0.80333150
   0.39080641  0.19814551  0.99814304
   0.39098454  0.20400172  0.39427566
   0.39797833  0.19826755  0.59985602
   0.40414695  0.20581348  0.80643309
   0.39957170  0.39858361  0.99985836
   0.39579219  0.39737401  0.20037012
   0.39393768  0.40370867  0.40080547
   0.40043911  0.39932517  0.60227421
   0.40171901  0.40230807  0.80268206
   0.39007140  0.58558134  0.00007033
   0.40128626  0.59872794  0.20125940
   0.40226605  0.60248526  0.39911447
   0.39971734  0.59691277  0.80575337
   0.39928315  0.79648635  0.19879196
   0.40011803  0.79648257  0.39892757
   0.39144666  0.80245379  0.59341593
   0.39302777  0.80277183  0.79527204
   0.60232773  0.00360402  0.00804046
   0.59628254  0.01105636  0.20355375
   0.59979084  0.98111209  0.39122049
   0.60136549  0.99747736  0.60023749
   0.59584354  0.20188600  0.00236560
   0.60488129  0.20942451  0.61668685
   0.59881331  0.19935880  0.80225360
   0.59825506  0.40424748  0.99382960
   0.59546350  0.39881423  0.60413828
   0.59927126  0.40164321  0.80151389
[...]
   0.180E+02 -.693E+02 0.369E+02   -.177E+02 0.697E+02 -.373E+02   -.210E+00 -.443E+00 0.422E+00   -.205E-02 0.449E-02 -.528E-02
   0.312E+02 -.538E+02 0.701E+02   -.307E+02 0.542E+02 -.701E+02   -.492E+00 -.400E+00 -.230E-01   -.898E-02 0.274E-02 -.134E-02
   0.179E+03 -.609E+01 -.165E+02   -.180E+03 0.659E+01 0.168E+02   0.310E+00 -.496E+00 -.347E+00   -.647E-02 -.561E-02 -.355E-02
   0.403E+02 0.549E+02 -.190E+02   -.407E+02 -.548E+02 0.191E+02   0.486E+00 -.762E-01 -.121E-01   -.339E-02 -.582E-02 -.661E-02
   -.537E+02 0.128E+03 0.125E+03   0.536E+02 -.128E+03 -.125E+03   0.555E-01 0.172E+00 -.386E+00   0.836E-02 -.128E-01 -.515E-02
   -.383E+02 0.940E+02 0.607E+02   0.385E+02 -.936E+02 -.611E+02   -.211E+00 -.377E+00 0.491E+00   0.128E-02 -.164E-02 0.486E-03
   0.902E+01 -.146E+02 0.137E+02   -.885E+01 0.152E+02 -.139E+02   -.165E+00 -.573E+00 0.232E+00   -.592E-02 0.291E-02 -.113E-02
   0.503E+02 0.292E+01 0.245E+02   -.504E+02 -.274E+01 -.245E+02   0.176E+00 -.178E+00 0.359E-03   0.219E-02 -.453E-02 -.646E-02
   -.170E+02 0.109E+03 0.676E+02   0.165E+02 -.108E+03 -.672E+02   0.437E+00 -.683E+00 -.394E+00   0.550E-02 -.147E-01 -.877E-02
   0.523E+02 -.688E+02 0.666E+02   -.519E+02 0.681E+02 -.661E+02   -.408E+00 0.613E+00 -.427E+00   -.883E-02 0.580E-02 -.876E-02
   -.911E+02 0.136E+00 0.531E+02   0.904E+02 -.226E+00 -.530E+02   0.667E+00 0.963E-01 -.734E-01   0.188E-02 -.652E-02 0.542E-02
 -----------------------------------------------------------------------------------------------
   -.473E+00 -.674E+00 0.883E+00   0.169E-11 0.506E-12 0.760E-11   0.465E+00 0.671E+00 -.871E+00   0.102E-01 0.566E-02 -.139E-01
 
 
 POSITION                                       TOTAL-FORCE (eV/Angst)
 -----------------------------------------------------------------------------------
      1.42585      1.49760     13.58632        -0.000926      0.002890     -0.004851
     -0.03416      2.95583      2.99513         0.000834      0.001331      0.003694
     -1.55429      4.45518      4.51952         0.001476      0.001105      0.002168
      3.02225      9.07707      3.00169         0.000303      0.000270     -0.001964
     -1.55837      4.48330     10.61705        -0.002120     -0.001574      0.003540
      1.51258      7.48748      7.43350         0.002238     -0.001129     -0.006551
      3.05055      6.04054     -3.02009        -0.001096      0.000260     -0.003883
      7.46388      1.51386      1.45781         0.011664     -0.009392     -0.011933
     -0.02727      6.05338      0.02076        -0.003035      0.001372      0.000648
      6.16415      3.21621      3.22004        -0.042133     -0.035400     -0.048020
     10.36094      4.72308      1.64122        -0.015453      0.015778      0.021471
     -0.01317      6.00240      2.90427         0.003751      0.001915      0.002609
     -0.06705      2.98681      6.06650         0.004168     -0.005601      0.000354
      1.54958      4.45298      4.46029         0.004058     -0.003262     -0.003573
      3.00663     12.09933      0.00345         0.008286      0.004143     -0.000048
      0.01577      9.18616      2.90839        -0.002156      0.001085     -0.003262
     -0.05555      0.03116     15.04984         0.000179      0.007543     -0.004194
      2.93375      2.96254     12.07790        -0.000392      0.003166      0.000846
      4.51890      4.50080     10.50125        -0.001247      0.002333     -0.001697
      6.03238      6.05807      8.97702        -0.001375      0.004171      0.001399
      9.01837      6.09993     -6.05677        -0.003328      0.001870     -0.005334
      2.95661      0.03716     -0.02786        -0.002206      0.000423     -0.012277
      4.41715      1.58506     -1.44703         0.000421      0.002536     -0.003513
      5.98790      3.14087     -3.04685        -0.000047     -0.000678     -0.003027
     -0.03519     12.13431      2.97822         0.000170      0.002910     -0.006053
     10.56782      4.55747     -4.57588        -0.001196      0.001018     -0.002543
      4.49128     -1.44471      1.55178         0.001696      0.001076      0.002375
     -1.64894      7.50312      7.58886        -0.000958     -0.008014     -0.004071
      7.64888      1.74516     -1.49139         0.001372      0.004558      0.000339
      9.13820      3.08854     -3.07010        -0.003900      0.002708     -0.003116
      4.45633     10.53586      4.51581        -0.003005     -0.000462      0.001917
     -0.05183      6.03717      9.06600         0.000415     -0.002675     -0.001455
     10.66287      1.55793     -1.55478        -0.003040      0.005651     -0.000073
     13.59686      1.51361     -1.53417         0.004523      0.005209      0.001290
      7.57774     -4.62790      4.59059        -0.001002     -0.005957      0.005790
      1.41984      4.50326     10.55392        -0.002791      0.000483      0.004237
     10.64042     -1.54391      1.53387        -0.003948      0.000230      0.000991
     12.14188      0.00116     -0.03870        -0.005729      0.011980      0.006183
     -1.46392      1.52656      1.52282        -0.002263      0.009516      0.003660
      7.53602     -4.58378      7.50714        -0.002426      0.007126      0.004289
      9.02232     -3.10855      6.01358         0.000082      0.005517      0.002182
      4.59132      7.59945     -4.59211        -0.001353      0.002083     -0.002035
      7.57390      7.54203     -4.58905         0.000011      0.000114     -0.001601
      1.48135      1.50441      1.52427         0.001960      0.002666     -0.002049
      2.97513      2.99365     -0.03059        -0.002368     -0.001156     -0.002039
      4.55008      4.52240     -1.49021         0.001668     -0.001345     -0.001456
      6.04750      6.05753     -3.07050         0.003895     -0.001945     -0.005303
      1.47998     -1.48908      4.48069        -0.001653     -0.000185     -0.001844
      3.00332      0.01261      3.01280        -0.003332     -0.001441     -0.001770
      4.49638      1.50318      1.51461        -0.000211     -0.002934     -0.002619
      5.98136      3.11553     -0.05043        -0.000127     -0.001618      0.003091
      7.53371      4.58031     -1.57813         0.000550     -0.001516      0.002044
      3.01043     -3.00203      5.99905        -0.005083     -0.001099      0.000639
      4.47660     -1.49688      4.54496        -0.005501     -0.001680     -0.000381
      5.99410     -0.09377      3.04632         0.001687      0.005120      0.000258
      9.08345      3.05789     -0.08533        -0.004518      0.006874     -0.002590
      4.51675     -4.54257      7.53139        -0.007128      0.005887      0.002838
      5.99594     -3.07085      5.99705        -0.001540     -0.001197      0.002300
      7.59889     -1.53124      4.56454        -0.002558     -0.000163     -0.000767
      9.10337     -0.01738      2.96000        -0.006243     -0.001556      0.002723
     10.62708      1.52109      1.48834        -0.003294      0.006895     -0.001771
     -3.01579      3.03560      3.06774         0.000773      0.008668      0.005898
      5.94766     -3.16974      9.02164        -0.005149      0.006975      0.003053
      1.53791      7.62642     -1.48640        -0.002847     -0.004690     -0.008434
      3.07022      9.08878     -3.04793         0.010090     -0.000118     -0.004043
      6.09140      9.01020     -3.11605         0.001157     -0.001913      0.000420
      1.55779      4.39750      1.50732         0.002498      0.004605      0.003219
      3.01946      6.04961     -0.04140        -0.000009      0.000568     -0.002903
      4.59506      7.60235     -1.50395         0.004961     -0.004356     -0.004038
      7.54886      7.57020     -1.55376         0.000272     -0.004389     -0.002177
      1.50952      1.50077      4.46946        -0.001381     -0.003107      0.000824
      3.09035      2.95547      2.98360         0.004254      0.001111      0.001327
      4.53478      4.56250      1.47249        -0.003911      0.004353     -0.007944
      6.06634      6.06613     -0.01466         0.003921     -0.004035     -0.004585
      1.45378     -1.48491      7.36147         0.002233     -0.001634     -0.001373
      2.99246      0.02281      6.02014         0.000675     -0.000858      0.001099
      4.51279      1.49898      4.55590        -0.004125     -0.003503      0.003528
      7.57184      4.59909      1.41191         0.006311      0.010430      0.005083
      4.47977     -1.51006      7.51243        -0.002928     -0.000204      0.000489
      5.99013      0.01078      6.00149         0.007349     -0.000919     -0.010904
      7.57490      1.37162      4.50636         0.010997      0.020002     -0.001831
      9.09506      2.90869      2.99045         0.003955     -0.006404     -0.003968
     -4.48437      4.59391      4.52707         0.008497      0.003577     -0.003408
     -2.90060      5.97116      3.05521         0.010204      0.011956     -0.006450
      5.80777      0.06472      8.96178         0.002681      0.001188     -0.004207
      7.50322      1.53429      7.51234         0.004292      0.002170     -0.004750
     -2.98340      2.99887      6.01369         0.009833     -0.001622      0.004548
      1.66045      7.65892      1.48169         0.002492     -0.000707      0.000334
      3.03695      9.09352     -0.04682         0.004823     -0.004170      0.001860
      6.03760      8.98593      0.03904         0.000934     -0.004880      0.001946
      3.06456      6.05706      2.93126         0.002300     -0.002380      0.003924
      4.55279      7.55805      1.48508         0.001207     -0.000295     -0.000714
      7.68607      7.40946      1.59252         0.013885     -0.013325      0.013228
      1.50196      1.42864      7.60281        -0.000662     -0.001357     -0.000474
      3.04571      2.95901      6.09463        -0.002565      0.002867     -0.001845
      4.45136      4.60398      4.54300         0.021663      0.008982      0.007631
      6.00613      6.09379      2.99003        -0.007920      0.003297     -0.007613
      8.09485      5.11460      4.01938        -0.105740     -0.111384      0.110295
      2.93456     -0.06245      9.11025         0.008522      0.010095     -0.005340
      4.46853      1.51063      7.52167         0.004913      0.005026     -0.004513
      6.04044      3.05925      6.00266         0.001385     -0.004375     -0.012933
      1.45032     -1.43629     13.59574         0.016427      0.009413      0.011075
      2.85074     -0.07669     12.01582        -0.006617     -0.008015     -0.023646
      4.37710      1.55215     10.51375         0.007332      0.005565     -0.003483
      5.95622      3.08233      8.95460         0.001165      0.005810     -0.004502
      7.53169      4.58889      7.48308        -0.002587     -0.002674     -0.021809
     -3.08267      6.02975      6.07920         0.008991     -0.004722     -0.002439
      1.50713     10.61609      1.47472        -0.001428      0.003211     -0.000754
      4.47750     10.43846      1.56065         0.002031     -0.004191      0.004464
     -1.61634      4.51750      7.64489         0.005978     -0.006396      0.003925
     -0.10025      5.80168      6.10344         0.003842     -0.003209      0.001458
      1.66724      7.60755      4.47062         0.001871      0.003660     -0.003899
      6.05943      9.03611      3.01500         0.007072     -0.006108      0.007450
     -0.02958      2.92283      9.04474        -0.000469     -0.003911      0.003262
      1.50634      4.54537      7.60662         0.001621     -0.004216      0.000388
      3.15369      6.02749      5.99745         0.002636     -0.003742     -0.006488
      4.55562      7.58508      4.50004         0.004009      0.007522      0.000539
     -0.03469      0.08463     12.09636         0.005375      0.004156     -0.006187
      1.44870      1.54629     10.58417         0.001906      0.011767      0.000335
      2.95251      3.01072      9.04572         0.002058      0.003550     -0.003834
      4.53856      4.55213      7.50767        -0.001485      0.003461      0.000327
      6.08485      6.04803      5.94064        -0.018831      0.033925      0.025907
      8.97330      3.06157      5.88980         0.032127     -0.016890      0.024893
     -1.46072      7.65133      4.66398         0.002409     -0.001043      0.002540
 -----------------------------------------------------------------------------------
    total drift:                                0.002530      0.002457     -0.001252


--------------------------------------------------------------------------------------------------------



  FREE ENERGIE OF THE ION-ELECTRON SYSTEM (eV)
  ---------------------------------------------------
  free  energy   TOTEN  =     -1096.67390210 eV

  energy  without entropy=    -1096.62348566  energy(sigma->0) =    -1096.65709662
 


--------------------------------------------------------------------------------------------------------


    POTLOK:  cpu time      0.1957: real time      0.0876


--------------------------------------------------------------------------------------------------------




--------------------------------------------------------------------------------------------------------


     LOOP+:  cpu time   3779.3665: real time   3776.9157
    4ORBIT:  cpu time      0.0000: real time      0.0000



 total charge

# of ion       s       p       d       tot
------------------------------------------
    1        0.423   6.331   4.200  10.954
    2        0.414   6.311   4.190  10.914
    3        0.416   6.306   4.210  10.932
    4        0.423   6.314   4.225  10.961
    5        0.362   6.293   2.115   8.770
    6        0.351   6.270   2.099   8.720
    7        0.362   6.291   2.128   8.781
    8        0.356   6.275   2.110   8.741
    9        0.356   6.282   2.101   8.739
   10        0.349   6.267   2.088   8.703
   11        0.343   6.259   2.084   8.686
   12        0.353   6.268   2.103   8.724
   13        0.365   6.299   2.119   8.782
   14        0.360   6.281   2.125   8.765
   15        0.361   6.301   2.149   8.811
   16        0.359   6.275   2.152   8.786
   17        0.359   6.243   3.059   9.661
   18        0.353   6.232   3.056   9.641
   19        0.356   6.227   3.077   9.660
   20        0.356   6.235   3.057   9.648
   21        0.356   6.236   3.058   9.650
   22        0.354   6.234   3.056   9.643
   23        0.352   6.220   3.083   9.655
   24        0.352   6.225   3.056   9.634
   25        0.354   6.237   3.041   9.633
   26        0.351   6.231   3.049   9.631
   27        0.358   6.223   3.090   9.672
   28        0.350   6.219   3.053   9.622
   29        0.356   6.207   3.106   9.669
   30        0.354   6.226   3.064   9.645
   31        0.357   6.236   3.067   9.660
   32        0.352   6.219   3.059   9.630
   33        0.357   6.232   3.080   9.669
   34        0.360   6.238   3.081   9.679
   35        0.361   6.236   3.080   9.678
   36        0.350   6.228   3.033   9.612
   37        0.352   6.227   3.054   9.633
   38        0.352   6.233   3.040   9.626
   39        0.358   6.245   3.047   9.650
   40        0.357   6.239   3.063   9.659
   41        0.355   6.225   3.080   9.661
   42        0.357   6.231   3.070   9.658
   43        0.361   6.237   3.095   9.693
   44        0.357   6.240   3.049   9.646
   45        0.359   6.238   3.080   9.676
   46        0.357   6.231   3.081   9.670
   47        0.353   6.235   3.042   9.630
   48        0.356   6.241   3.048   9.645
   49        0.360   6.237   3.073   9.670
   50        0.349   6.229   3.027   9.605
   51        0.356   6.219   3.097   9.672
   52        0.360   6.237   3.066   9.663
   53        0.355   6.229   3.080   9.665
   54        0.356   6.229   3.076   9.661
   55        0.354   6.224   3.067   9.645
   56        0.352   6.224   3.073   9.649
   57        0.351   6.224   3.061   9.637
   58        0.353   6.231   3.036   9.620
   59        0.351   6.228   3.041   9.620
   60        0.351   6.220   3.056   9.627
   61        0.349   6.219   3.057   9.626
   62        0.355   6.236   3.053   9.645
   63        0.355   6.220   3.094   9.669
   64        0.353   6.225   3.079   9.657
   65        0.354   6.235   3.069   9.658
   66        0.357   6.234   3.074   9.665
   67        0.354   6.228   3.050   9.632
   68        0.349   6.229   3.035   9.613
   69        0.354   6.230   3.056   9.640
   70        0.357   6.232   3.076   9.665
   71        0.353   6.233   3.039   9.625
   72        0.357   6.224   3.096   9.677
   73        0.351   6.228   3.049   9.627
   74        0.357   6.237   3.053   9.648
   75        0.371   6.239   3.091   9.701
   76        0.358   6.233   3.083   9.674
   77        0.353   6.229   3.062   9.643
   78        0.359   6.226   3.029   9.614
   79        0.350   6.227   3.040   9.617
   80        0.355   6.228   3.064   9.647
   81        0.362   6.230   3.095   9.687
   82        0.364   6.233   3.049   9.646
   83        0.361   6.236   3.054   9.650
   84        0.364   6.220   3.075   9.660
   85        0.354   6.216   3.086   9.656
   86        0.349   6.233   3.039   9.621
   87        0.348   6.230   3.033   9.611
   88        0.356   6.223   3.066   9.645
   89        0.354   6.234   3.082   9.670
   90        0.355   6.229   3.065   9.649
   91        0.355   6.227   3.076   9.658
   92        0.358   6.240   3.066   9.664
   93        0.337   6.214   3.003   9.554
   94        0.355   6.231   3.058   9.643
   95        0.352   6.228   3.055   9.635
   96        0.365   6.224   3.113   9.702
   97        0.371   6.241   3.065   9.677
   98        0.339   6.186   3.042   9.568
   99        0.351   6.213   3.015   9.578
  100        0.360   6.234   3.094   9.688
  101        0.346   6.222   3.016   9.584
  102        0.371   6.235   3.113   9.719
  103        0.330   6.208   2.988   9.525
  104        0.352   6.223   3.061   9.635
  105        0.355   6.228   3.074   9.657
  106        0.356   6.230   3.084   9.670
  107        0.352   6.223   3.072   9.647
  108        0.352   6.226   3.077   9.655
  109        0.355   6.231   3.060   9.646
  110        0.352   6.221   3.060   9.634
  111        0.355   6.208   3.076   9.639
  112        0.341   6.215   3.001   9.557
  113        0.356   6.238   3.062   9.656
  114        0.353   6.222   3.075   9.649
  115        0.351   6.224   3.047   9.622
  116        0.356   6.218   3.109   9.684
  117        0.356   6.240   3.055   9.651
  118        0.369   6.246   3.061   9.676
  119        0.370   6.233   3.099   9.702
  120        0.356   6.231   3.073   9.660
  121        0.357   6.233   3.073   9.663
  122        0.346   6.228   3.014   9.588
  123        2.432   6.253   3.383  12.068
  124        2.260   5.963   1.921  10.143
--------------------------------------------------
tot         48.262 773.076 372.1381193.476
 

 total amount of memory used by VASP MPI-rank0  7324551. kBytes
=======================================================================

   base      :      30000. kBytes
   nonl-proj :    1299768. kBytes
   fftplans  :      67629. kBytes
   grid      :     189621. kBytes
   one-center:       1928. kBytes
   wavefun   :    5735605. kBytes
 
  
  
 General timing and accounting informations for this job:
 ========================================================
  
                  Total CPU time used (sec):     3892.689
                            User time (sec):     3227.933
                          System time (sec):      664.757
                         Elapsed time (sec):     3889.990
  
                   Maximum memory used (kb):     9648116.
                   Average memory used (kb):          N/A
  
                          Minor page faults:      1337363
                          Major page faults:           11
                 Voluntary context switches:       715243
