127
Lattice="12.123038219 -0.015476755 0.012330929 -0.015489709 12.161392244 -0.018048251 0.012330998 -0.018049107 12.150357743" Properties=species:S:1:pos:R:3:forces:R:3 stress="0.0034464926827123504 -0.00032460216510981065 0.0005819645524064808 -0.00032460216510981065 0.003784588990552321 4.451444308579939e-05 0.0005819645524064808 4.451444308579939e-05 0.0037006906248821985" free_energy=-1143.96621915 energy=-1143.94507292 pbc="T T T"
Cr       0.01620000       3.00973000       9.09273000       0.00021400       0.00034500       0.00035200
Cr       1.52529000      10.63857000      10.62176000      -0.00029100       0.00016000      -0.00007900
Cr       7.60117000       1.49923000      10.63445000      -0.00033400       0.00024300      -0.00022500
Cr      10.59742000       1.53168000       4.56948000       0.00044700      -0.00041200       0.00072900
Cr       9.11541000      -0.00772000       9.18961000       0.00008300      -0.00010300       0.00019400
Cr       9.05447000       6.08132000       6.01193000      -0.00001100      -0.00061300      -0.00000500
Ti       0.01011000       0.04576000       6.08808000      -0.00051300      -0.00021400       0.00046100
Ti       4.54520000      10.65397000      10.59898000       0.00007100       0.00060200      -0.00018800
Ti       7.61586000       1.52391000       7.60996000      -0.00080100       0.00021500       0.00024400
Ti       7.64109000       4.52404000       7.51777000      -0.00000500       0.00027600       0.00045600
Ti       6.12765000       9.04828000      12.12667000       0.00053100      -0.00029400      -0.00065700
Ti      10.58360000       1.45254000       1.43836000       0.00011600      -0.00071700       0.00035200
Ti       9.01394000       2.99035000       3.05678000       0.00026100      -0.00037600       0.00036100
Ti      10.59509000       4.57602000       4.58883000       0.00044500      -0.00028600       0.00042200
Ti       9.11071000       5.98003000      12.12233000      -0.00031500      -0.00062600      -0.00048900
Ti      10.67730000       7.42689000       7.61429000      -0.00009600       0.00012500      -0.00007200
Ti       9.04880000       9.09552000       9.17335000      -0.00048600       0.00002400       0.00048100
V        0.01622000      12.07257000      12.05681000       0.00015500      -0.00084400      -0.00015800
V        1.40066000       1.55504000       1.41000000      -0.00015000      -0.00016900      -0.00022900
V       12.03645000       0.02861000       3.12504000      -0.00011000      -0.00073000       0.00121100
V        1.49255000       1.70269000       4.63785000      -0.00051700       0.00001600       0.00108900
V        1.51826000       1.60470000       7.68353000      -0.00061400      -0.00010500      -0.00050000
V        0.03176000       0.01470000       9.13602000      -0.00040300      -0.00019300       0.00040400
V        1.47413000       1.50348000      10.58411000      -0.00007000       0.00015700       0.00012200
V        0.00963000       3.01465000      12.10797000      -0.00037700      -0.00061400      -0.00055200
V        1.47539000       4.54299000       1.49181000      -0.00025100      -0.00043300      -0.00009600
V       12.09875000       3.01725000       3.03670000      -0.00046200      -0.00038500       0.00046000
V        1.50383000       4.58808000       4.59145000      -0.00071100      -0.00035700      -0.00013300
V        0.04717000       3.03002000       6.11238000      -0.00056800       0.00028400      -0.00044000
V        1.59417000       4.62226000       7.52054000      -0.00068800       0.00038700      -0.00032700
V       12.10542000       6.05368000       0.01098000      -0.00046900      -0.00061700      -0.00062300
V        1.55863000       7.55289000       1.44091000      -0.00007500      -0.00013800      -0.00033800
V        0.00783000       6.03686000       2.97774000      -0.00016400      -0.00034400       0.00033700
V        1.78480000       7.36770000       4.86172000       0.00107700      -0.00062700       0.00258300
V        0.04739000       6.03341000       6.08378000      -0.00000500      -0.00028100      -0.00028300
V        1.56131000       7.55586000       7.59843000      -0.00065300       0.00086200      -0.00021400
V        0.06694000       6.00791000       9.11905000       0.00043900      -0.00124000       0.00079100
V        1.53578000       7.58484000      10.62439000      -0.00031400       0.00032400      -0.00046700
V       -0.00231000       9.12091000      -0.00897000      -0.00035900      -0.00037600      -0.00008500
V        1.50280000      10.56674000       1.34485000      -0.00000600      -0.00043500       0.00022700
V        1.58333000      10.52449000       4.78653000      -0.00064900      -0.00049700       0.00082700
V        0.10101000       9.10837000       6.12046000       0.00068400       0.00025400       0.00014600
V        1.55832000      10.63919000       7.65285000      -0.00028400       0.00033900      -0.00004600
V        2.96545000      -0.01832000      12.10774000       0.00011400       0.00036700      -0.00019100
V        4.58201000       1.54931000       1.44843000       0.00013700       0.00006200      -0.00084600
V        4.60482000       1.60881000       4.61754000      -0.00009700       0.00044300       0.00038700
V        3.06788000       0.02150000       6.19416000      -0.00019700       0.00003000       0.00028100
V        4.56764000       1.56841000       7.62867000      -0.00001000       0.00069100       0.00007700
V        3.00335000       0.01468000       9.09213000      -0.00002600       0.00066800       0.00028300
V        4.52246000       1.48054000      10.63289000       0.00033400       0.00038700      -0.00060600
V        3.03363000       2.99281000      12.10808000       0.00037600      -0.00041600      -0.00044400
V        4.54259000       4.53742000       1.51131000      -0.00017300       0.00013600      -0.00032700
V        4.50544000       4.63618000       4.61473000      -0.00053400       0.00015300       0.00011800
V        3.01681000       3.01084000       6.10006000      -0.00025400       0.00051900      -0.00036900
V        4.46490000       4.58652000       7.50110000      -0.00035900       0.00022200      -0.00055600
V        3.05596000       3.04007000       9.07251000      -0.00035300       0.00031100       0.00011500
V        4.53825000       4.51269000      10.56712000       0.00043700       0.00027500      -0.00102000
V        3.02852000       6.05825000      12.11213000       0.00037700       0.00001700      -0.00008300
V        4.53018000       7.60171000       1.54112000      -0.00011800      -0.00011300       0.00003600
V        4.57089000       7.58734000       4.55827000       0.00016300       0.00075700       0.00037600
V        3.03290000       6.08110000       9.14414000      -0.00074400       0.00056400      -0.00043400
V        4.50758000       7.60023000      10.54559000       0.00011200       0.00026800      -0.00064700
V        2.99659000       9.08604000      12.12783000      -0.00016400       0.00030400      -0.00015100
V        4.52664000      10.58785000       1.46097000       0.00040800       0.00055500       0.00021300
V        3.08948000       9.06642000       3.05456000      -0.00006600       0.00019700       0.00053700
V        4.62945000      10.56467000       4.60544000       0.00034000       0.00043600       0.00049800
V        3.07387000       9.19286000       6.11633000      -0.00032500      -0.00012000       0.00043200
V        4.57008000      10.64028000       7.63218000       0.00018900       0.00069800      -0.00006900
V        3.03120000       9.10763000       9.09973000      -0.00007100       0.00012800      -0.00021300
V        6.10096000       0.04179000       0.01883000       0.00057400       0.00031300      -0.00043300
V        7.52638000       1.45012000       1.49794000       0.00007600      -0.00034100      -0.00026600
V        6.06177000      -0.00074000       3.02986000       0.00082800       0.00016100       0.00019500
V        7.50461000       1.48226000       4.60427000      -0.00021900      -0.00023400       0.00042400
V        6.02044000      -0.00713000       6.07004000      -0.00001200       0.00038100       0.00010100
V        6.08976000       0.08525000       9.18094000      -0.00007500       0.00068500       0.00017600
V        6.05356000       2.99284000      12.11466000       0.00028300       0.00004100      -0.00088300
V        7.47962000       4.52937000       1.53674000      -0.00027000      -0.00043400      -0.00061100
V        6.07602000       3.03971000       3.03310000      -0.00000500      -0.00011800      -0.00020600
V        7.55820000       4.58754000       4.57568000      -0.00015900       0.00013000       0.00016300
V        5.95911000       3.05836000       6.00848000      -0.00051100       0.00042100      -0.00005300
V        6.01461000       3.00894000       9.16336000      -0.00036700       0.00063700      -0.00029700
V        7.54875000       4.46459000      10.54952000      -0.00054900      -0.00000100      -0.00106800
V        7.58585000       7.59277000       1.57319000       0.00046600       0.00045800      -0.00008600
V        6.06812000       6.06648000       3.03771000       0.00012400       0.00008800      -0.00065800
V        7.51738000       7.56632000       4.48135000       0.00017400       0.00051600      -0.00022800
V        6.08830000       6.10034000       5.98691000      -0.00016800       0.00021800      -0.00022000
V        7.51963000       7.43781000       7.55607000      -0.00058100       0.00035600       0.00039400
V        6.00867000       6.03451000       9.05149000       0.00022100       0.00061500      -0.00042700
V        7.53095000       7.49512000      10.55546000       0.00051800       0.00003100      -0.00036400
V        7.58506000      10.64717000       1.51981000       0.00063600      -0.00015800       0.00006000
V        6.04672000       9.12038000       2.99784000       0.00073300       0.00022300       0.00021200
V        7.48462000      10.70561000       4.45013000       0.00079900       0.00011900       0.00062800
V        6.04524000       9.12544000       6.06044000       0.00014800       0.00028900       0.00024000
V        7.53237000      10.83397000       7.68906000       0.00031100       0.00053000       0.00027400
V        6.11576000       9.09349000       9.06302000       0.00053600       0.00009000       0.00000000
V        7.60202000      10.72407000      10.63287000       0.00046800       0.00048700       0.00019100
V        9.01397000      12.12343000      12.10126000      -0.00007700      -0.00071800      -0.00040200
V        9.04265000      -0.01076000       3.05721000       0.00044200      -0.00062500       0.00098100
V        9.14431000       0.04774000       6.04595000      -0.00009200      -0.00018300       0.00028200
V       10.61056000       1.53963000       7.70988000       0.00001000      -0.00011500      -0.00023800
V       10.60106000       1.45921000      10.61266000      -0.00006900      -0.00024600       0.00021100
V        9.00654000       2.96962000      12.08056000      -0.00037700      -0.00040000      -0.00079300
V       10.67261000       4.49458000       1.52214000      -0.00004200      -0.00067500      -0.00025200
V        9.22113000       2.87199000       5.98092000       0.00038200       0.00001500      -0.00008300
V       10.69073000       4.47027000       7.61496000      -0.00002200      -0.00034400      -0.00013100
V        9.14152000       3.00018000       9.20410000      -0.00006300       0.00069600       0.00018400
V       10.65765000       4.41586000      10.56251000       0.00012800      -0.00018600      -0.00105500
V       10.58419000       7.55864000       1.48093000       0.00035600      -0.00014000       0.00022400
V        9.03997000       6.06488000       2.94708000       0.00025800      -0.00008300      -0.00044500
V       10.52088000       7.34998000       4.60585000      -0.00012500      -0.00047500       0.00026200
V        9.10073000       6.01662000       9.20713000      -0.00038000      -0.00008000       0.00020400
V       10.69724000       7.56051000      10.64934000      -0.00007800      -0.00023800      -0.00050200
V        9.08877000       9.10576000       0.00964000       0.00037200      -0.00053600      -0.00017500
V       10.54359000      10.67110000       1.46780000       0.00042000      -0.00090100       0.00061200
V        9.03801000       9.12046000       2.97805000       0.00031700      -0.00062600       0.00023000
V       10.51679000      10.78542000       4.44803000       0.00053000      -0.00068400       0.00097900
V       10.63309000      10.79077000       7.76262000       0.00072400       0.00023100       0.00034600
V       10.58152000      10.67156000      10.67606000       0.00048600      -0.00005700       0.00025000
W        1.51469000       4.50638000      10.59571000      -0.00189700       0.00058800      -0.00123600
W        0.03374000       9.14922000       9.15742000       0.00049600       0.00065500       0.00120100
W        3.02671000       3.05662000       3.02745000       0.00058800       0.00031500       0.00019400
W        3.04014000       6.08020000       2.99037000       0.00019500      -0.00067600      -0.00081800
W        4.46555000       7.53275000       7.47596000      -0.00031100       0.00091900      -0.00062300
W        6.04970000       6.04808000      12.11996000       0.00045000       0.00013600      -0.00055300
Zr       0.03316000       9.06463000       3.13840000       0.00002700      -0.00119900       0.00092500
Zr       2.93745000      12.12165000       3.08411000       0.00035300      -0.00053300      -0.00004500
Zr       9.10976000       9.18694000       6.07102000      -0.00025400       0.00053800      -0.00043600
127
Lattice="12.123038219 -0.015476755 0.012330929 -0.015489709 12.161392244 -0.018048251 0.012330998 -0.018049107 12.150357743" Properties=species:S:1:pos:R:3:forces:R:3 stress="0.003310078259257046 -0.00046581630908291933 0.0007134544251614636 -0.00046581630908291933 0.0036671862038944562 -0.00017595438376777494 0.0007134544251614636 -0.00017595438376777494 0.003556979877258736" free_energy=-1143.90413997 energy=-1143.88402497 pbc="T T T"
Cr      12.09659000       2.98583000       9.09930000       0.00998400       0.00777500      -0.00487600
Cr       1.52947000      10.63975000      10.62327000      -0.00365000       0.00391500       0.00048100
Cr       7.58502000       1.53010000      10.60537000      -0.00222700      -0.00698400       0.00583400
Cr      10.58141000       1.53006000       4.56920000       0.00016100       0.00200200      -0.00297700
Cr       9.08924000       0.01941000       9.18029000       0.00825100      -0.00336000       0.00163300
Cr       9.05771000       6.08297000       6.01804000      -0.01138700       0.00346500      -0.00261900
Ti      12.12015000      -0.00105000       6.09862000       0.00254100       0.01307900      -0.00311000
Ti       4.54856000      10.69172000      10.60005000      -0.00014300      -0.01255800      -0.00004200
Ti       7.56847000       1.56623000       7.58506000       0.01069700      -0.00826800       0.00233200
Ti       7.62078000       4.55856000       7.49473000      -0.02754500      -0.01130600       0.00879100
Ti       6.13520000       9.08401000      12.13953000      -0.00058100      -0.01162500      -0.00503400
Ti      10.57949000       1.46015000       1.43373000       0.00148600      -0.00630900      -0.00071800
Ti       9.00450000       3.00555000       3.03716000      -0.00571100      -0.00587500       0.00449700
Ti      10.59414000       4.56506000       4.59155000      -0.01140800       0.00441500      -0.00446400
Ti       9.10042000       6.00245000      12.12566000       0.00350900      -0.00570400      -0.00407700
Ti      10.67434000       7.41520000       7.63586000      -0.01087100       0.00797000      -0.00375900
Ti       9.05233000       9.11940000       9.18377000      -0.00443200      -0.00296300      -0.00376500
V        0.01485000      12.07579000      12.05285000       0.00093400      -0.00186600      -0.00055300
V        1.39818000       1.54782000       1.39715000      -0.00359100       0.00159000      -0.00024900
V       12.04309000       0.02747000       3.12051000      -0.00595800      -0.00429600       0.00123300
V        1.48283000       1.66326000       4.61184000       0.00177400       0.02338300       0.00636700
V        1.48477000       1.57905000       7.66920000       0.00375900       0.01611900      -0.00256400
V        0.01277000       0.00643000       9.13353000       0.00517100       0.00941000      -0.00013000
V        1.44035000       1.50998000      10.57167000       0.00842300       0.00081100      -0.00027000
V       12.10910000       3.00542000      12.11922000       0.00747000      -0.00259600      -0.00418600
V        1.47480000       4.53728000       1.48875000      -0.00141900       0.00013100      -0.00534800
V       12.09768000       3.00511000       3.03639000      -0.00576300       0.00642600      -0.00665000
V        1.52125000       4.56976000       4.59814000      -0.02030400       0.00558300      -0.01177100
V        0.01269000       2.98430000       6.09145000       0.00551800       0.02227800       0.00796200
V        1.50259000       4.56337000       7.54463000       0.04855800       0.04065900      -0.03295600
V       12.10069000       6.05485000       0.02939000      -0.00133300       0.00429900      -0.01077800
V        1.56811000       7.54516000       1.47141000      -0.00229200       0.00424900      -0.01498800
V        0.02544000       6.02934000       2.99842000      -0.00864400      -0.00138100      -0.00936100
V        1.75400000       7.37480000       4.82051000       0.02798500      -0.02239400       0.03771200
V        0.04329000       6.00055000       6.10900000      -0.01897600       0.01729600      -0.01581500
V        1.57480000       7.52939000       7.59886000      -0.01399100       0.01836600       0.00214900
V        0.03907000       6.00898000       9.14582000       0.00390000      -0.00305900      -0.01766500
V        1.54081000       7.58772000      10.64153000      -0.00173400      -0.00124800      -0.01585000
V        0.01280000       9.11343000       0.00388000      -0.00591100       0.00769100      -0.00190600
V        1.51961000      10.55439000       1.33879000      -0.00499500       0.00061200       0.00274000
V        1.60363000      10.50096000       4.79706000      -0.01045500       0.00560500      -0.00442400
V        0.12690000       9.07184000       6.13613000      -0.01292800       0.01399300      -0.00107600
V        1.56155000      10.63052000       7.66082000      -0.00365200       0.00527000      -0.00250400
V        2.95440000      -0.00602000      12.09488000       0.00457600      -0.00046200      -0.00106300
V        4.57644000       1.55022000       1.40921000      -0.00010700       0.00252000       0.00845500
V        4.60451000       1.59754000       4.58302000      -0.01061700       0.00739600       0.00420500
V        3.06877000       0.01224000       6.18569000      -0.00454900       0.00720000       0.00089900
V        4.52752000       1.59485000       7.59227000       0.01103000       0.01347500       0.00999700
V        2.99108000       0.03011000       9.08186000       0.00034300       0.00005600      -0.00192900
V        4.49677000       1.52125000      10.59350000       0.00364600      -0.01267400       0.00881800
V        3.01824000       3.00249000      12.07704000       0.00147400      -0.00003200       0.00290900
V        4.54456000       4.53583000       1.48024000      -0.00257400       0.00373800       0.00695600
V        4.51882000       4.60814000       4.55260000      -0.02314800       0.02419000       0.03566500
V        2.97288000       2.98446000       6.05957000       0.00206200       0.00359700       0.00557800
V        4.30594000       4.70072000       7.36968000       0.16476100      -0.14407200       0.16201300
V        3.00143000       3.06392000       9.03271000       0.00814800      -0.00504900       0.01078900
V        4.50566000       4.54788000      10.53021000       0.00918600      -0.00889700      -0.01209300
V        3.03200000       6.06081000      12.10429000      -0.00411500      -0.00015200      -0.00106400
V        4.54455000       7.60243000       1.54082000      -0.00352300       0.00057200      -0.00392500
V        4.57077000       7.57129000       4.56929000       0.00447400       0.02117800      -0.01265800
V        3.00349000       6.10061000       9.14340000      -0.00074500       0.00256600      -0.00317100
V        4.51387000       7.63160000      10.55807000      -0.00626900      -0.00500100      -0.01404500
V        3.01545000       9.09016000      12.13816000      -0.00771500       0.00058300      -0.00449900
V        4.53709000      10.59784000       1.45890000      -0.00360300       0.00494900      -0.00464300
V        3.10481000       9.04680000       3.07260000      -0.00426900       0.00546200      -0.00802500
V        4.64671000      10.56170000       4.61202000      -0.00643000       0.00989600      -0.00404400
V        3.08523000       9.18354000       6.12856000      -0.00446200       0.01234700      -0.00724700
V        4.57932000      10.66224000       7.63748000      -0.00482900      -0.00872100      -0.00416200
V        3.02969000       9.12773000       9.11961000       0.00606000      -0.00499700      -0.01327000
V        6.11813000       0.05565000      12.14785000      -0.00176800      -0.00698600       0.00219300
V        7.52592000       1.46264000       1.47412000      -0.00059400      -0.00343600       0.00234100
V        6.06780000      -0.00042000       3.01021000      -0.00141000       0.00575800       0.00461400
V        7.49192000       1.49180000       4.58143000       0.00010400       0.00132900       0.00177100
V        6.01117000       0.00855000       6.05600000       0.00072600       0.00260600      -0.00090000
V        6.07027000       0.13654000       9.16661000       0.00651200      -0.01384400       0.00326600
V        6.03833000       3.01358000      12.06345000       0.00154200      -0.00244500       0.01249300
V        7.47327000       4.54386000       1.51174000      -0.00029000      -0.00107000       0.00324500
V        6.07625000       3.04030000       2.99614000      -0.00539200       0.00595900       0.00569800
V        7.55095000       4.59563000       4.55687000      -0.00349900       0.00373800      -0.00034400
V        5.92343000       3.09310000       5.97778000       0.00496600      -0.01275700      -0.00698700
V        5.93721000       3.07635000       9.09237000       0.02753700      -0.03180000       0.03156800
V        7.51372000       4.49694000      10.51482000       0.00621100      -0.00616900       0.00610700
V        7.59650000       7.60931000       1.58199000      -0.00180400      -0.00022300      -0.00615000
V        6.08479000       6.08015000       3.02095000      -0.01161700      -0.00514500      -0.00221100
V        7.54079000       7.57300000       4.49010000      -0.01786900       0.00045400      -0.00443700
V        6.08005000       6.12074000       5.96951000      -0.00152300       0.00691100      -0.00601300
V        7.52718000       7.46955000       7.56140000      -0.01016900      -0.00804600      -0.00837200
V        5.98497000       6.07380000       9.02903000       0.00078400       0.00100900       0.00718000
V        7.53007000       7.53647000      10.56941000       0.00059900      -0.00437900      -0.00618000
V        7.60050000      10.66252000       1.52524000      -0.00590400      -0.00114800      -0.00088700
V        6.06626000       9.12399000       3.00485000      -0.00560900       0.00573800      -0.00728000
V        7.49891000      10.70608000       4.45828000      -0.00437000       0.00492100      -0.00651700
V        6.07208000       9.14273000       6.05945000      -0.01461000      -0.00003400       0.00470000
V        7.53433000      10.85955000       7.68186000       0.00014800      -0.00073000       0.00044000
V        6.12832000       9.13322000       9.07762000      -0.00476500      -0.00728100      -0.00991100
V        7.60021000      10.76059000      10.62782000       0.00257200      -0.00878300       0.00392800
V        9.03791000      -0.02931000      12.11717000      -0.00573500      -0.00054300      -0.00184700
V        9.04275000      -0.00252000       3.05410000       0.00231200      -0.00231500       0.00247900
V        9.12380000       0.05474000       6.04080000       0.00546700       0.00159500       0.00094800
V       10.57269000       1.52722000       7.69479000       0.01094600       0.01052900       0.00442600
V       10.58231000       1.47365000      10.59808000       0.00267500      -0.00270200       0.00587800
V        8.99300000       2.98508000      12.06076000       0.00335400      -0.00600100       0.00525600
V       10.66917000       4.49859000       1.51917000      -0.00197400       0.00085200      -0.00529500
V        9.18742000       2.87954000       5.96317000       0.00398400       0.00222200       0.00511600
V       10.65878000       4.45495000       7.61701000       0.00673200       0.00747000      -0.00308600
V        9.10223000       3.01429000       9.18532000       0.00642300       0.00020000       0.00422900
V       10.62458000       4.42627000      10.56852000       0.01074500      -0.00379300      -0.00589100
V       10.59797000       7.55183000       1.49810000      -0.00346800       0.00408500      -0.00804600
V        9.05290000       6.06531000       2.95087000      -0.01000800       0.00788300      -0.00632200
V       10.56176000       7.33537000       4.62661000      -0.02085900       0.00706300      -0.00816800
V        9.07423000       6.03727000       9.21609000       0.00030500      -0.00881100      -0.00777100
V       10.69196000       7.57129000      10.66624000       0.00046900       0.00066800      -0.00613400
V        9.09721000       9.12066000       0.02450000      -0.00005300      -0.00352000      -0.00533100
V       10.55271000      10.67854000       1.46886000      -0.00008500      -0.00676000       0.00315900
V        9.05632000       9.12229000       2.99154000      -0.00349100       0.00433200      -0.00694800
V       10.51559000      10.78856000       4.43598000       0.00603400      -0.00478400       0.00003700
V       10.62862000      10.79492000       7.78190000      -0.00076900       0.00305800      -0.00640000
V       10.58753000      10.67785000      10.69148000      -0.00080300       0.00395400      -0.00401800
W        1.48610000       4.51131000      10.59772000       0.00383600       0.00150500      -0.00674200
W        0.03700000       9.14364000       9.17108000      -0.00384900       0.00609000      -0.00295100
W        3.02014000       3.03636000       2.99639000       0.00300500       0.01223100       0.00363600
W        3.05167000       6.06435000       2.98142000      -0.00704800       0.00786800      -0.00279900
W        4.49146000       7.57925000       7.50365000      -0.01936900      -0.02233700      -0.02172000
W        6.04674000       6.06882000      12.10332000      -0.00312200      -0.00221300      -0.00037200
Zr       0.03838000       9.08094000       3.14057000       0.00361900      -0.01889000       0.00389000
Zr       2.94980000      12.09938000       3.06777000      -0.01144800       0.01032300       0.00451900
Zr       9.14842000       9.19171000       6.07693000      -0.01735900       0.00232600      -0.00477500
127
Lattice="12.123038219 -0.015476755 0.012330929 -0.015489709 12.161392244 -0.018048251 0.012330998 -0.018049107 12.150357743" Properties=species:S:1:pos:R:3:forces:R:3 stress="0.002886105027354048 -0.0008438457923102907 0.001102269236158361 -0.0008438457923102907 0.003536719938636119 -0.0006068182417457481 0.001102269236158361 -0.0006068182417457481 0.0035793494459659017" free_energy=-1143.69290838 energy=-1143.67665158 pbc="T T T"
Cr      12.09107000       2.97514000       9.10958000      -0.00172800       0.00784200      -0.00310900
Cr       1.53039000      10.63634000      10.62109000      -0.00027500       0.00245000       0.00193100
Cr       7.58641000       1.53110000      10.59946000      -0.00246900      -0.00430700       0.00294100
Cr      10.58344000       1.52895000       4.57450000       0.00034800       0.00198400      -0.00113300
Cr       9.08467000       0.01973000       9.17905000       0.00421400       0.00080000       0.00212900
Cr       9.07239000       6.07829000       6.02383000      -0.01193600      -0.00388800       0.00277500
Ti      12.11912000      -0.01236000       6.10048000       0.00638800       0.00969400       0.00123600
Ti       4.55012000      10.69912000      10.60327000      -0.00240000      -0.00489600       0.00278300
Ti       7.55453000       1.57707000       7.58768000       0.00607500      -0.00489900      -0.00099100
Ti       7.66787000       4.56822000       7.48830000      -0.05598700      -0.01033800       0.00593300
Ti       6.12229000       9.10890000      -0.00139000      -0.00044300      -0.00823700      -0.00261900
Ti      10.58058000       1.46387000       1.43461000       0.00283600      -0.00795500       0.00042300
Ti       9.01116000       3.00880000       3.04039000      -0.00130100      -0.00247700      -0.00104500
Ti      10.61019000       4.56215000       4.59952000      -0.01555500      -0.00087400      -0.00875900
Ti       9.09999000       6.00373000      12.13178000       0.00255200      -0.00261700      -0.00420600
Ti      10.68790000       7.40578000       7.63561000      -0.01597300       0.01012700       0.00208400
Ti       9.05777000       9.11975000       9.18301000       0.00060800       0.00146400      -0.00164200
V        0.01508000      12.07771000      12.05071000       0.00210900      -0.00375200       0.00188700
V        1.40427000       1.54685000       1.39775000       0.00079300       0.00190600      -0.00029800