127
Lattice="11.736635361891226 -0.00407584549339791 0.002664485705144228 -0.004075710617396691 11.738506413263783 0.0006529362281632765 0.002664967552593105 0.0006528921137531925 11.738346641132775" Properties=species:S:1:pos:R:3:energies:R:1:forces:R:3 energy=-1144.5218211531815 free_energy=-1144.5218211531815 stress="-0.0006475742739353278 0.000138316459743126 0.00018544316384288997 0.000138316459743126 -0.0010465557233448912 -0.0001346141436095404 0.00018544316384288997 -0.0001346141436095404 -0.0015759354635871544" pbc="T T T"
Cr       0.01622424       2.93345286       8.81137736      -7.66480977      -0.00097220       0.00008059       0.00119019
Cr       1.48613256      10.27068039      10.27760963      -7.56139607       0.00187968      -0.00238585       0.00267329
Cr       7.30239854       1.49319369      10.26641291      -7.44748250       0.00110124      -0.00015598      -0.00088614
Cr      10.25198903       1.48973587       4.35975784      -7.17915438       0.00020040       0.00036481      -0.00110833
Cr       8.83015703      -0.02600992       8.79469221      -7.48046664      -0.00061437       0.00040453      -0.00110143
Cr       8.79245679       5.87209336       5.83803992      -7.13434124      -0.00249598       0.00165645      -0.00277987
Ti       0.01628129      -0.02455043       5.88317096      -8.24820630      -0.00224316       0.00114575       0.00161829
Ti       4.39974130      10.28336575      10.25439908      -8.24332653       0.00029557      -0.00101008       0.00006122
Ti       7.30162722       1.47122791       7.33064077      -8.33002100      -0.00163542       0.00086576      -0.00168777
Ti       7.31648745       4.39563434       7.34588022      -8.23817693       0.00008109      -0.00055653      -0.00051006
Ti       5.88029889       8.81336800      -0.00269594      -8.24345482      -0.00338297      -0.00555966      -0.00105440
Ti      10.27081765       1.47376943       1.45792445      -8.19195964       0.00213541       0.00012110       0.00096006
Ti       8.76975895       2.95300336       2.90512554      -8.19945629       0.00165855      -0.00047446      -0.00170467
Ti      10.29337761       4.37205895       4.38109823      -8.33319448      -0.00021950       0.00109392      -0.00007793
Ti       8.81659178       5.86427580      -0.00037339      -8.30753639       0.00096918      -0.00035537      -0.00183343
Ti      10.31845621       7.35118063       7.37244131      -8.58354374      -0.00215712      -0.00041277       0.00014849
Ti       8.76818771       8.79831879       8.83811791      -8.52819983      -0.00093173       0.00000457       0.00031208
V       -0.01142613       0.01291136       0.00293705      -9.18974794       0.00254794      -0.00104380       0.00287411
V        1.47987344       1.47043915       1.47808699      -9.52875915       0.00238269      -0.00002560       0.00233133
V       -0.00170328      -0.00346600       2.94135190      -9.13817058       0.00225512      -0.00014282       0.00139971
V        1.48601501       1.47919573       4.39389118      -9.52728294       0.00097589      -0.00007473       0.00236441
V        1.49696608       1.47233896       7.33923740      -9.15386911      -0.00036073      -0.00032316       0.00087518
V        0.00000935      -0.00498662       8.79261774      -9.61561017      -0.00051403      -0.00069540       0.00145026
V        1.47802823       1.46650110      10.28840389      -9.46739861       0.00035882      -0.00063353       0.00193197
V       -0.00117567       2.94026714      -0.00417186      -9.59743984       0.00131547      -0.00039212       0.00102778
V        1.49256198       4.40040574       1.49554009     -10.04646463      -0.00213698      -0.00466933      -0.00255503
V        0.03466243       2.94495933       2.92041735      -9.39745584       0.00039499      -0.00207110      -0.00021195
V        1.49427006       4.40031277       4.39824489      -9.80447446      -0.00043218       0.00034901       0.00004555
V        0.00752474       2.93142978       5.86905893      -9.28938161      -0.00120609      -0.00101185       0.00121797
V        1.48820169       4.41276309       7.30898770      -9.38826085      -0.00197530      -0.00068186       0.00207229
V        0.00848683       5.86276387      -0.00400406      -9.52263090       0.00027567       0.00048277       0.00016261
V        1.47642921       7.34108355       1.48702521      -9.47931507       0.00224123      -0.00133362       0.00192484
V        0.01888598       5.85625853       2.92253624      -9.29969853      -0.00000398       0.00005728       0.00272129
V        1.41282121       7.33924115       4.40236490      -9.26301975       0.00194823      -0.00312022       0.00010965
V        0.01529500       5.85190887       5.87673174      -9.24171708      -0.00133342       0.00188962       0.00015929
V        1.46674994       7.34134733       7.34187712      -9.74727440      -0.00268783      -0.00038288      -0.00038183
V        0.01220294       5.84351936       8.81270259      -9.85118232      -0.00060004       0.00003777       0.00213576
V        1.46595665       7.34619320      10.26946143      -9.86320069       0.00155504       0.00021350       0.00135887
V       -0.00665800       8.78789207       0.00700136      -9.29819887       0.00312803      -0.00135114       0.00229839
V        1.46626847      10.25353939       1.49533140      -9.20026279       0.00145116       0.00051188       0.00214328
V        1.49288738      10.24373211       4.38224332      -9.05016459      -0.00001621      -0.00043035       0.00311962
V        0.03087932       8.82504666       5.88286295      -9.27348951      -0.00147405      -0.00280480      -0.00004191
V        1.47811722      10.24643507       7.36000376      -9.58091652      -0.00497300       0.00202105       0.00433244
V        2.93658311       0.01788622      -0.00370910      -9.10824170       0.00112966      -0.00113442       0.00255623
V        4.39108805       1.47710448       1.47456468      -9.44030020       0.00221856      -0.00038909       0.00105935
V        4.38567767       1.47363764       4.39400781      -9.42331322       0.00206612       0.00123006       0.00268706
V        2.92651342       0.00450831       5.89685292      -8.97679112       0.00173528       0.00225863       0.00157692
V        4.39843882       1.46600404       7.34469602      -8.99946894      -0.00116215       0.00040712      -0.00009801
V        2.93266303       0.00242609       8.79873731      -9.15921020      -0.00134482       0.00015460       0.00220957
V        4.39306360       1.47077774      10.27814909      -9.18130001       0.00071259      -0.00050084       0.00029239
V        2.93437940       2.94267931       0.00511671      -9.79743577       0.00175899      -0.00177935      -0.00029607
V        4.40404233       4.40980310       1.47877019     -10.23693857      -0.00009254       0.00128428      -0.00008151
V        4.38363664       4.33010664       4.40037668      -9.65948690      -0.00346057       0.00160059      -0.00323915
V        2.93233157       2.93422787       5.87654359      -9.31893083       0.00213569       0.00069699      -0.00021159
V        4.40008153       4.40228949       7.32696754      -9.27867652      -0.00256882       0.00150798      -0.00242179
V        2.93037079       2.94922529       8.80369425      -9.48812086      -0.00170011      -0.00003093       0.00093871
V        4.41770263       4.40710678      10.28202974      -9.76657624       0.00037087       0.00080405      -0.00141698
V        2.92016660       5.85761929      -0.00282921      -9.96068772       0.00322146       0.00060002      -0.00130242
V        4.41176526       7.32704506       1.39183021      -9.59196788       0.00136505      -0.00129288       0.00236681
V        2.96673845       5.89563897       5.83680918      -9.54794081      -0.00472814      -0.00176527      -0.00286267
V        2.92991590       5.85890160       8.80470524      -9.95572557       0.00060304       0.00151751       0.00166054
V        4.39743128       7.32282909      10.27217546      -9.78473516      -0.00038642       0.00087588      -0.00050272
V        2.94441104       8.78718422       0.00376913      -9.20287431       0.00416019      -0.00238865       0.00082699
V        4.38769426      10.26494787       1.48637061      -9.02230275       0.00140725      -0.00036326       0.00121602
V        3.00617713       8.72263503       3.00208290      -9.08396579       0.00235670      -0.00587085       0.00477236
V        4.40113323      10.32684293       4.40917045      -8.84514927      -0.00002038      -0.00170992       0.00134202
V        2.98051058       8.75932419       5.85531472      -9.32536125      -0.00481799       0.00652817       0.00548501
V        4.39613081      10.26553470       7.34074290      -9.26673105      -0.00114832       0.00031261      -0.00244963
V        2.93933262       8.79736861       8.80121279      -9.74805798      -0.00053485      -0.00096876       0.00393934
V        5.85971246      -0.01096338       0.01395622      -9.09034188       0.00147961      -0.00082705      -0.00034941
V        7.32866902       1.47897844       1.47691522      -9.09572072       0.00127162       0.00015427      -0.00021674
V        5.87917045       0.00718149       2.93539712      -9.01748127      -0.00034267       0.00281501       0.00187768
V        7.33165175       1.47572931       4.40858538      -9.09167775      -0.00081278       0.00092242      -0.00160269
V        5.86490487       0.00777262       5.87884321      -8.96749840      -0.00285580       0.00215685      -0.00128089
V        5.84767894      -0.01482615       8.80445627      -9.18343397       0.00003101       0.00042087       0.00016957
V        5.85154878       2.93966212       0.01634830      -9.38124228       0.00171369       0.00049543      -0.00135187
V        7.32149106       4.39499710       1.47964605      -9.43890521       0.00173513      -0.00028594      -0.00429412
V        5.86666033       2.93765356       2.93586752      -9.31104872      -0.00032511      -0.00024705       0.00191104
V        7.30507158       4.40299674       4.38859927      -9.10271090      -0.00157354       0.00058595      -0.00010775
V        5.86032093       2.92995555       5.87981404      -9.05145643      -0.00415843       0.00183138      -0.00308293
V        5.84214062       2.94133018       8.80384727      -9.13986148      -0.00041048       0.00006818      -0.00069981
V        7.31993696       4.40644644      10.27997548      -9.52113021      -0.00148297       0.00117624      -0.00104370
V        7.30912200       7.32922375       1.48308930      -9.35483040       0.00027868       0.00182625      -0.00312950
V        5.81721624       5.91079415       2.98402391      -9.48566368      -0.00346580      -0.00071303      -0.00296225
V        7.37842467       7.36683017       4.39366335      -8.98134535      -0.00203997      -0.00136306      -0.00264610
V        5.80290172       5.90179905       5.81896186      -9.38488749       0.00314312      -0.00163215      -0.00046003
V        7.29188278       7.32910310       7.31137502      -9.38221002      -0.00157008      -0.00069394      -0.00379395
V        5.86412530       5.86811544       8.80800934      -9.70504755      -0.00309431       0.00136355      -0.00142438
V        7.32916545       7.32725460      10.26301599      -9.46575968      -0.00100193       0.00000945      -0.00256627
V        7.31864493      10.27244338       1.47937081      -8.99482347       0.00341820       0.00194948      -0.00420567
V        5.81933373       8.75809581       2.96169794      -8.89231360       0.00332537       0.00477367      -0.00467373
V        7.32200905      10.25309113       4.39843330      -9.05991369       0.00075760       0.00112652      -0.00190663
V        5.79792653       8.77150830       5.82540789      -9.19590131      -0.00253301       0.00145293      -0.00263597
V        7.31187035      10.25776868       7.29032949      -9.21946077       0.00005804       0.00102315      -0.00109174
V        5.87099347       8.79803952       8.81172801      -9.46891966      -0.00173294      -0.00122540      -0.00137741
V        7.31086271      10.26935933      10.29766858      -9.16153034      -0.00049196      -0.00077559      -0.00070230
V        8.80251281      -0.01065516       0.00794904      -9.21504145       0.00192709      -0.00051213      -0.00006546
V        8.78570759       0.00105972       2.92384975      -9.07664026       0.00148543       0.00093680      -0.00184192
V        8.80576025       0.00908301       5.87067179      -9.22898207      -0.00007811       0.00119095      -0.00111971
V       10.26112801       1.47936340       7.33476172      -9.31500393      -0.00122836      -0.00016981      -0.00089258
V       10.27684733       1.46869736      10.29832041      -9.37823393       0.00054809      -0.00060324       0.00094726
V        8.80428533       2.94653057       0.01699084      -9.19212165       0.00091805       0.00073874      -0.00034443
V       10.27709139       4.39104274       1.46978442      -9.03533191       0.00074546       0.00107336       0.00066548
V        8.78491493       2.92529804       5.87901483      -9.28367923      -0.00083770       0.00048604      -0.00137383
V       10.25955957       4.39543121       7.33012449      -9.28242090      -0.00223297       0.00091072      -0.00106832
V        8.80789694       2.95028462       8.81309822      -9.34965550      -0.00113596       0.00019127      -0.00161240
V       10.25931306       4.40900950      10.28452263      -9.39719058       0.00032512       0.00038647       0.00046261
V       10.29259353       7.34668918       1.47424046      -8.96644606       0.00168476       0.00013749       0.00008280
V        8.79945805       5.85317979       2.91589728      -9.13939105       0.00276365       0.00195499      -0.00115446
V       10.28587377       7.36430272       4.37685471      -9.20305133       0.00149585       0.00096074       0.00069591
V        8.79633761       5.86446597       8.82518788      -9.24793095      -0.00181036      -0.00043947      -0.00069666
V       10.30424827       7.32567872      10.27326907      -9.48903402       0.00091379       0.00000850       0.00087458
V        8.78850205       8.79902807      -0.00961736      -9.13927898       0.00145796       0.00039891      -0.00094167
V       10.27831647      10.27018680       1.47710405      -9.05816773       0.00210972      -0.00084264       0.00080330
V        8.77942726       8.80776192       2.89439879      -9.00304184       0.00235966      -0.00161972      -0.00107214
V       10.24742341      10.23714168       4.38599135      -9.20009698      -0.00059209       0.00008095       0.00035184
V       10.28174114      10.23466595       7.32467758      -9.63893922      -0.00153239      -0.00015184      -0.00055282
V       10.29703658      10.26340215      10.28888401      -9.65803147       0.00077370      -0.00103778       0.00112486
W        1.48375145       4.40414117      10.28366886      -6.80327178       0.00219053       0.00115845       0.00040199
W       -0.01389972       8.78688323       8.80409377      -6.81610585      -0.00107062       0.00029173       0.00220400
W        2.94891555       2.94222797       2.94156270      -6.89919738       0.00197802      -0.00128512       0.00099736
W        2.98898674       5.91671814       2.98400174      -7.07633964      -0.00386128      -0.00197970      -0.00409066
W        4.38870526       7.33107064       7.38952250      -6.68081058      -0.00276377       0.00043800       0.00192002
W        5.88288606       5.86473901       0.00118653      -6.57806979      -0.00081193       0.00255931      -0.00360338
Zr      -0.00105350       8.79994136       2.93599824      -7.93982735       0.00031469      -0.00017968       0.00191659
Zr       2.93989516       0.00268805       2.93896652      -8.07522127       0.00328546      -0.00184885       0.00411855
Zr       8.79404970       8.81910204       5.83023258      -8.10974633       0.00129675      -0.00040748      -0.00062142
