 vasp.6.4.2 20Jul23 (build Sep 20 2024 16:56:05) complex                         
 executed on              LinuxNV date 2025.04.25  16:35:39
 running    4 mpi-ranks, with    8 threads/rank, on    1 nodes
 distrk:  each k-point on    4 cores,    1 groups
 distr:  one band on NCORE=   1 cores,    4 groups
 OpenACC runtime initialized ...    4 GPUs detected


--------------------------------------------------------------------------------------------------------


 INCAR:
   ENCUT = 520.000000
   POTIM = 0.200000
   SIGMA = 0.200000
   EDIFF = 1.00e-06
   EDIFFG = -1.00e-02
   ALGO = Normal
   GGA = PE
   PREC = Accurate
   IBRION = 2
   ISIF = 2
   ISMEAR = 1
   LORBIT = 11
   NELM = 100
   NSW = -1
   LCHARG = .TRUE.
   LWAVE = .FALSE.
   LREAL = .FALSE.

 POTCAR:    PAW_PBE Cr_pv 02Aug2007               
 POTCAR:    PAW_PBE Ti_pv 07Sep2000               
 POTCAR:    PAW_PBE V_pv 07Sep2000                
 POTCAR:    PAW_PBE W_sv 04Sep2015                
 POTCAR:    PAW_PBE Zr_sv 04Jan2005               
 POTCAR:    PAW_PBE Cr_pv 02Aug2007               
   SHA256 =  c9a7df34d3cdbacf1090e328ef39c0b420964e11c23f63548d1ac9dd218cdba0 Cr_pv/POTCAR          
   COPYR  = (c) Copyright 02Aug2007 Georg Kresse                                                    
   COPYR  = This file is part of the software VASP. Any use, copying, and all other rights are regul
   COPYR  = If you do not have a valid VASP license, you may not use, copy or distribute this file. 
   VRHFIN =Cr : p6d5s1                                                                              
   LEXCH  = PE                                                                                      
   EATOM  =  1647.9177 eV,  121.1185 Ry                                                             
                                                                                                    
   TITEL  = PAW_PBE Cr_pv 02Aug2007                                                                 
   LULTRA =        F    use ultrasoft PP ?                                                          
   IUNSCR =        1    unscreen: 0-lin 1-nonlin 2-no                                               
   RPACOR =    2.080    partial core radius                                                         
   POMASS =   51.996; ZVAL   =   12.000    mass and valenz                                          
   RCORE  =    2.300    outmost cutoff radius                                                       
   RWIGS  =    2.500; RWIGS  =    1.323    wigner-seitz radius (au A)                               
   ENMAX  =  265.681; ENMIN  =  199.261 eV                                                          
   ICORE  =        3    local potential                                                             
   LCOR   =        T    correct aug charges                                                         
   LPAW   =        T    paw PP                                                                      
   EAUG   =  519.424                                                                                
   DEXC   =    0.000                                                                                
   RMAX   =    2.356    core radius for proj-oper                                                   
   RAUG   =    1.300    factor for augmentation sphere                                              
   RDEP   =    2.447    radius for radial grids                                                     
   RDEPT  =    1.882    core radius for aug-charge                                                  
                                                                                                    
   Atomic configuration                                                                             
    8 entries                                                                                       
     n  l   j            E        occ.                                                              
     1  0  0.50     -5880.4963   2.0000                                                             
     2  0  0.50      -667.0865   2.0000                                                             
     2  1  1.50      -560.6250   6.0000                                                             
     3  0  0.50       -73.9860   2.0000                                                             
     3  1  1.50       -45.4378   6.0000                                                             
     3  2  2.50        -2.9137   5.0000                                                             
     4  0  0.50        -4.0071   1.0000                                                             
     4  3  2.50        -1.3606   0.0000                                                             
   Description                                                                                      
     l       E           TYP  RCUT    TYP  RCUT                                                     
     1    -45.4377911     23  2.000                                                                 
     1      1.3605826     23  2.000                                                                 
     2     -2.9136672     23  2.300                                                                 
     2     -4.2742498     23  2.300                                                                 
     0     -4.0071320     23  2.300                                                                 
     0      9.4498803     23  2.300                                                                 
     3      2.7211652     23  2.300                                                                 
  local pseudopotential read in
  partial core-charges read in
  partial kinetic energy density read in
  atomic valenz-charges read in
  non local Contribution for L=            1  read in
    real space projection operators read in
  non local Contribution for L=            1  read in
    real space projection operators read in
  non local Contribution for L=            2  read in
    real space projection operators read in
  non local Contribution for L=            2  read in
    real space projection operators read in
  non local Contribution for L=            0  read in
    real space projection operators read in
  non local Contribution for L=            0  read in
    real space projection operators read in
    PAW grid and wavefunctions read in
 
   number of l-projection  operators is LMAX  =            6
   number of lm-projection operators is LMMAX =           18
 
 POTCAR:    PAW_PBE Ti_pv 07Sep2000               
   SHA256 =  f757a1b2c6d082f4c628fa3d987464a8763bf92e53844ac0500b0e2ddc9ce5c0 Ti_pv/POTCAR          
   COPYR  = (c) Copyright 07Sep2000 Georg Kresse                                                    
   COPYR  = This file is part of the software VASP. Any use, copying, and all other rights are regul
   COPYR  = If you do not have a valid VASP license, you may not use, copy or distribute this file. 
   VRHFIN =Ti: d3 s1                                                                                
   LEXCH  = PE                                                                                      
   EATOM  =  1042.5995 eV,   76.6289 Ry                                                             
                                                                                                    
   TITEL  = PAW_PBE Ti_pv 07Sep2000                                                                 
   LULTRA =        F    use ultrasoft PP ?                                                          
   IUNSCR =        1    unscreen: 0-lin 1-nonlin 2-no                                               
   RPACOR =    2.200    partial core radius                                                         
   POMASS =   47.880; ZVAL   =   10.000    mass and valenz                                          
   RCORE  =    2.500    outmost cutoff radius                                                       
   RWIGS  =    2.500; RWIGS  =    1.323    wigner-seitz radius (au A)                               
   ENMAX  =  222.335; ENMIN  =  166.751 eV                                                          
   RCLOC  =    1.701    cutoff for local pot                                                        
   LCOR   =        T    correct aug charges                                                         
   LPAW   =        T    paw PP                                                                      
   EAUG   =  482.848                                                                                
   DEXC   =    0.000                                                                                
   RMAX   =    2.564    core radius for proj-oper                                                   
   RAUG   =    1.300    factor for augmentation sphere                                              
   RDEP   =    2.538    radius for radial grids                                                     
   RDEPT  =    1.952    core radius for aug-charge                                                  
                                                                                                    
   Atomic configuration                                                                             
    8 entries                                                                                       
     n  l   j            E        occ.                                                              
     1  0  0.50     -4865.3608   2.0000                                                             
     2  0  0.50      -533.1368   2.0000                                                             
     2  1  1.50      -440.5031   6.0000                                                             
     3  0  0.50       -59.3186   2.0000                                                             
     3  1  1.50       -35.7012   6.0000                                                             
     3  2  2.50        -1.9157   3.0000                                                             
     4  0  0.50        -3.7291   1.0000                                                             
     4  3  2.50        -1.3606   0.0000                                                             
   Description                                                                                      
     l       E           TYP  RCUT    TYP  RCUT                                                     
     1    -35.7012140     23  2.300                                                                 
     1     -1.3605826     23  2.300                                                                 
     2     -1.9156996     23  2.500                                                                 
     2     -0.4063033     23  2.500                                                                 
     0     -3.7290856     23  2.500                                                                 
     0     20.4087390     23  2.500                                                                 
  local pseudopotential read in
  partial core-charges read in
  partial kinetic energy density read in
  atomic valenz-charges read in
  non local Contribution for L=            1  read in
    real space projection operators read in
  non local Contribution for L=            1  read in
    real space projection operators read in
  non local Contribution for L=            2  read in
    real space projection operators read in
  non local Contribution for L=            2  read in
    real space projection operators read in
  non local Contribution for L=            0  read in
    real space projection operators read in
  non local Contribution for L=            0  read in
    real space projection operators read in
    PAW grid and wavefunctions read in
 
   number of l-projection  operators is LMAX  =            6
   number of lm-projection operators is LMMAX =           18
 
 POTCAR:    PAW_PBE V_pv 07Sep2000                
   SHA256 =  1175d3c8cb4ffd1d150a520fa74fae5c3ec72c0849b5615a94a5372dd2cf07f7 V_pv/POTCAR           
   COPYR  = (c) Copyright 07Sep2000 Georg Kresse                                                    
   COPYR  = This file is part of the software VASP. Any use, copying, and all other rights are regul
   COPYR  = If you do not have a valid VASP license, you may not use, copy or distribute this file. 
   VRHFIN =V: p6 d4 s1                                                                              
   LEXCH  = PE                                                                                      
   EATOM  =  1321.6206 eV,   97.1364 Ry                                                             
                                                                                                    
   TITEL  = PAW_PBE V_pv 07Sep2000                                                                  
   LULTRA =        F    use ultrasoft PP ?                                                          
   IUNSCR =        1    unscreen: 0-lin 1-nonlin 2-no                                               
   RPACOR =    1.700    partial core radius                                                         
   POMASS =   50.941; ZVAL   =   11.000    mass and valenz                                          
   RCORE  =    2.300    outmost cutoff radius                                                       
   RWIGS  =    2.300; RWIGS  =    1.217    wigner-seitz radius (au A)                               
   ENMAX  =  263.673; ENMIN  =  197.755 eV                                                          
   RCLOC  =    1.779    cutoff for local pot                                                        
   LCOR   =        T    correct aug charges                                                         
   LPAW   =        T    paw PP                                                                      
   EAUG   =  598.473                                                                                
   DEXC   =    0.000                                                                                
   RMAX   =    2.359    core radius for proj-oper                                                   
   RAUG   =    1.300    factor for augmentation sphere                                              
   RDEP   =    2.430    radius for radial grids                                                     
   RDEPT  =    1.700    core radius for aug-charge                                                  
                                                                                                    
   Atomic configuration                                                                             
    8 entries                                                                                       
     n  l   j            E        occ.                                                              
     1  0  0.50     -5360.7193   2.0000                                                             
     2  0  0.50      -598.4546   2.0000                                                             
     2  1  1.50      -499.0155   6.0000                                                             
     3  0  0.50       -66.5711   2.0000                                                             
     3  1  1.50       -40.5282   6.0000                                                             
     3  2  2.50        -2.4291   4.0000                                                             
     4  0  0.50        -3.8743   1.0000                                                             
     4  3  2.50        -1.3606   0.0000                                                             
   Description                                                                                      
     l       E           TYP  RCUT    TYP  RCUT                                                     
     1    -40.5282431     23  2.000                                                                 
     1      5.4423304     23  2.000                                                                 
     2     -2.4290905     23  2.300                                                                 
     2     -1.0472488     23  2.300                                                                 
     0     -3.8742754     23  2.300                                                                 
     0     27.2116520     23  2.300                                                                 
  local pseudopotential read in
  partial core-charges read in
  partial kinetic energy density read in
  atomic valenz-charges read in
  non local Contribution for L=            1  read in
    real space projection operators read in
  non local Contribution for L=            1  read in
    real space projection operators read in
  non local Contribution for L=            2  read in
    real space projection operators read in
  non local Contribution for L=            2  read in
    real space projection operators read in
  non local Contribution for L=            0  read in
    real space projection operators read in
  non local Contribution for L=            0  read in
    real space projection operators read in
    PAW grid and wavefunctions read in
 
   number of l-projection  operators is LMAX  =            6
   number of lm-projection operators is LMMAX =           18
 
 POTCAR:    PAW_PBE W_sv 04Sep2015                
   SHA256 =  931c2d770f65867ef30f3db3421922900fc0890ebac5c3e12f63b6a2064023d7 W_sv/POTCAR           
   COPYR  = (c) Copyright 04Sep2015 Georg Kresse                                                    
   COPYR  = This file is part of the software VASP. Any use, copying, and all other rights are regul
   COPYR  = If you do not have a valid VASP license, you may not use, copy or distribute this file. 
   VRHFIN =W : 5p6s5d                                                                               
   LEXCH  = PE                                                                                      
   EATOM  =  1865.5791 eV,  137.1162 Ry                                                             
                                                                                                    
   TITEL  = PAW_PBE W_sv 04Sep2015                                                                  
   LULTRA =        F    use ultrasoft PP ?                                                          
   IUNSCR =        1    unscreen: 0-lin 1-nonlin 2-no                                               
   RPACOR =    2.330    partial core radius                                                         
   POMASS =  183.850; ZVAL   =   14.000    mass and valenz                                          
   RCORE  =    2.500    outmost cutoff radius                                                       
   RWIGS  =    2.750; RWIGS  =    1.455    wigner-seitz radius (au A)                               
   ENMAX  =  223.057; ENMIN  =  167.293 eV                                                          
   ICORE  =        3    local potential                                                             
   LCOR   =        T    correct aug charges                                                         
   LPAW   =        T    paw PP                                                                      
   EAUG   =  373.438                                                                                
   DEXC   =    0.000                                                                                
   RMAX   =    2.565    core radius for proj-oper                                                   
   RAUG   =    1.300    factor for augmentation sphere                                              
   RDEP   =    2.539    radius for radial grids                                                     
   RDEPT  =    2.126    core radius for aug-charge                                                  
                                                                                                    
   Atomic configuration                                                                             
   15 entries                                                                                       
     n  l   j            E        occ.                                                              
     1  0  0.50    -69465.5834   2.0000                                                             
     2  0  0.50    -11986.2640   2.0000                                                             
     2  1  1.50    -10479.8613   6.0000                                                             
     3  0  0.50     -2759.0756   2.0000                                                             
     3  1  1.50     -2313.1855   6.0000                                                             
     3  2  2.50     -1801.1183  10.0000                                                             
     4  0  0.50      -567.6789   2.0000                                                             
     4  1  1.50      -421.4692   6.0000                                                             
     4  2  2.50      -236.3471  10.0000                                                             
     4  3  3.50       -31.2665  14.0000                                                             
     5  0  0.50       -77.1084   2.0000                                                             
     6  0  0.50        -5.1438   1.0000                                                             
     5  1  1.50       -41.3856   6.0000                                                             
     5  2  2.50        -3.3185   5.0000                                                             
     5  3  2.50        -1.3606   0.0000                                                             
   Description                                                                                      
     l       E           TYP  RCUT    TYP  RCUT                                                     
     0    -77.1084470     23  2.100                                                                 
     0     -5.1437956     23  2.300                                                                 
     1    -41.3855615     23  2.500                                                                 
     1     -2.7211652     23  2.500                                                                 
     2     -3.3185025     23  2.500                                                                 
     2     -1.5965151     23  2.500                                                                 
     3     -1.3605826     23  2.500                                                                 
  local pseudopotential read in
  partial core-charges read in
  partial kinetic energy density read in
  kinetic energy density of atom read in
  atomic valenz-charges read in
  non local Contribution for L=            0  read in
    real space projection operators read in
  non local Contribution for L=            0  read in
    real space projection operators read in
  non local Contribution for L=            1  read in
    real space projection operators read in
  non local Contribution for L=            1  read in
    real space projection operators read in
  non local Contribution for L=            2  read in
    real space projection operators read in
  non local Contribution for L=            2  read in
    real space projection operators read in
    PAW grid and wavefunctions read in
 
   number of l-projection  operators is LMAX  =            6
   number of lm-projection operators is LMMAX =           18
 
 POTCAR:    PAW_PBE Zr_sv 04Jan2005               
   SHA256 =  25aed69cb10325f9d37c5c68912b61a17387d1f8e4f1d804860ffa10c8a4bf76 Zr_sv/POTCAR          
   COPYR  = (c) Copyright 04Jan2005 Georg Kresse                                                    
   COPYR  = This file is part of the software VASP. Any use, copying, and all other rights are regul
   COPYR  = If you do not have a valid VASP license, you may not use, copy or distribute this file. 
   VRHFIN =Zr: 4s4p5s4d                                                                             
   LEXCH  = PE                                                                                      
   EATOM  =  1284.2219 eV,   94.3876 Ry                                                             
                                                                                                    
   TITEL  = PAW_PBE Zr_sv 04Jan2005                                                                 
   LULTRA =        F    use ultrasoft PP ?                                                          
   IUNSCR =        1    unscreen: 0-lin 1-nonlin 2-no                                               
   RPACOR =    2.200    partial core radius                                                         
   POMASS =   91.224; ZVAL   =   12.000    mass and valenz                                          
   RCORE  =    2.500    outmost cutoff radius                                                       
   RWIGS  =    3.070; RWIGS  =    1.625    wigner-seitz radius (au A)                               
   ENMAX  =  229.898; ENMIN  =  172.424 eV                                                          
   ICORE  =        3    local potential                                                             
   LCOR   =        T    correct aug charges                                                         
   LPAW   =        T    paw PP                                                                      
   EAUG   =  461.257                                                                                
   DEXC   =    0.000                                                                                
   RMAX   =    2.561    core radius for proj-oper                                                   
   RAUG   =    1.300    factor for augmentation sphere                                              
   RDEP   =    2.597    radius for radial grids                                                     
   RDEPT  =    2.007    core radius for aug-charge                                                  
                                                                                                    
   Atomic configuration                                                                             
   11 entries                                                                                       
     n  l   j            E        occ.                                                              
     1  0  0.50    -17820.0161   2.0000                                                             
     2  0  0.50     -2467.0882   2.0000                                                             
     2  1  1.50     -2199.6095   6.0000                                                             
     3  0  0.50      -402.4863   2.0000                                                             
     3  1  1.50      -315.3675   6.0000                                                             
     3  2  2.50      -172.4472  10.0000                                                             
     4  0  0.50       -52.4146   2.0000                                                             
     5  0  0.50        -3.8421   1.0000                                                             
     4  1  1.50       -30.5054   6.0000                                                             
     4  2  2.50        -2.3341   3.0000                                                             
     4  3  2.50        -1.3606   0.0000                                                             
   Description                                                                                      
     l       E           TYP  RCUT    TYP  RCUT                                                     
     0    -52.4145962     23  2.200                                                                 
     0     -3.8421270     23  2.500                                                                 
     1    -30.5053914     23  2.200                                                                 
     1     20.4087390     23  2.200                                                                 
     2     -2.3340816     23  2.500                                                                 
     2     -0.6120942     23  2.500                                                                 
     3     -4.0817478     23  2.500                                                                 
  local pseudopotential read in
  partial core-charges read in
  partial kinetic energy density read in
  atomic valenz-charges read in
  non local Contribution for L=            0  read in
    real space projection operators read in
  non local Contribution for L=            0  read in
    real space projection operators read in
  non local Contribution for L=            1  read in
    real space projection operators read in
  non local Contribution for L=            1  read in
    real space projection operators read in
  non local Contribution for L=            2  read in
    real space projection operators read in
  non local Contribution for L=            2  read in
    real space projection operators read in
    PAW grid and wavefunctions read in
 
   number of l-projection  operators is LMAX  =            6
   number of lm-projection operators is LMMAX =           18
 
 -----------------------------------------------------------------------------
|                                                                             |
|               ----> ADVICE to this user running VASP <----                  |
|                                                                             |
|     You have a (more or less) 'large supercell' and for larger cells it     |
|     might be more efficient to use real-space projection operators.         |
|     Therefore, try LREAL= Auto in the INCAR file.                           |
|     Mind: For very accurate calculation, you might also keep the            |
|     reciprocal projection scheme (i.e. LREAL=.FALSE.).                      |
|                                                                             |
 -----------------------------------------------------------------------------

  PAW_PBE Cr_pv 02Aug2007               :
 energy of atom  1       EATOM=-1647.9177
 kinetic energy error for atom=    0.0057 (will be added to EATOM!!)
  PAW_PBE Ti_pv 07Sep2000               :
 energy of atom  2       EATOM=-1042.5995
 kinetic energy error for atom=    0.0019 (will be added to EATOM!!)
  PAW_PBE V_pv 07Sep2000                :
 energy of atom  3       EATOM=-1321.6206
 kinetic energy error for atom=    0.0054 (will be added to EATOM!!)
  PAW_PBE W_sv 04Sep2015                :
 energy of atom  4       EATOM=-1865.5791
 kinetic energy error for atom=    0.0026 (will be added to EATOM!!)
  PAW_PBE Zr_sv 04Jan2005               :
 energy of atom  5       EATOM=-1284.2219
 kinetic energy error for atom=    0.0043 (will be added to EATOM!!)
 
 
 POSCAR: Cr Ti V  W  Zr
  positions in cartesian coordinates
  No initial velocities read in
 exchange correlation table for  LEXCH =        8
   RHO(1)=    0.500       N(1)  =     2000
   RHO(2)=  100.500       N(2)  =     4000
 


--------------------------------------------------------------------------------------------------------


 ion  position               nearest neighbor table
   1  0.999  0.997  0.197-  35 2.47 118 2.53  17 2.55  22 2.56  45 2.58  40 2.59  18 2.59 103 2.65
                           102 2.94  23 2.94  41 2.97  34 2.99 119 3.00  44 3.04
   2  0.394  0.197  0.194-  39 2.49  66 2.56  44 2.56  71 2.59  63 2.61  67 2.61  14 2.62   3 2.63
                            43 2.98  62 2.98  40 3.01  12 3.05  13 3.07
   3  0.594  0.198  0.193-  62 2.49  84 2.51  87 2.52 111 2.53  13 2.60   2 2.63 107 2.68  12 2.72
                            83 2.96  66 3.02  63 3.03  14 3.11 124 3.20
   4  0.800  0.402  0.801- 109 2.46 112 2.48  88 2.49  31 2.54 117 2.60  30 2.64 108 2.64  92 2.64
                            33 3.01  16 3.02  91 3.02  89 3.05 113 3.05
   5  1.000  0.603  0.196-  31 2.63  32 2.66 109 2.67  35 2.68  59 2.68  54 2.69 114 2.69  27 2.71
                            58 2.95 110 2.97  36 2.97  55 3.00 113 3.02  26 3.04
   6  0.987  0.595  0.597- 116 2.62  33 2.67 111 2.69  32 2.69  37 2.70  29 2.70  61 2.75   8 2.77
                           115 2.94 112 2.96  38 3.03
   7  0.200  0.002  0.600-  46 2.63  60 2.63  64 2.67  36 2.67  69 2.67  19 2.68  41 2.68  42 2.70
                            37 2.97  68 2.98  59 2.99  47 3.00  65 3.04
   8  0.196  0.592  0.594-  28 2.62  82 2.65  51 2.66  60 2.69  55 2.69  56 2.72  10 2.75   6 2.77
                            29 2.94  50 2.99  32 3.02
   9  0.402  1.000  0.398-  80 2.66  58 2.66  41 2.68  64 2.68  63 2.70  85 2.72  67 2.73  88 2.75
                            12 2.89  59 2.98  79 3.03
  10  0.419  0.613  0.614-  96 2.58  81 2.67  78 2.68  73 2.70  77 2.71  98 2.74   8 2.75  50 2.84
                           101 2.85  97 2.93  72 3.02  82 3.02
  11  0.427  0.798  0.998-  82 2.58  84 2.61  75 2.66  56 2.73  79 2.77  78 2.78  99 2.78  62 2.80
                            83 2.83  57 2.98
  12  0.590  0.193  0.397-  67 2.65  63 2.65  14 2.70   3 2.72  88 2.75 112 2.80  85 2.80 124 2.81
                             9 2.89  84 2.90   2 3.05
  13  0.599  0.399  0.195-   3 2.60  66 2.64  90 2.65 110 2.69  94 2.69  71 2.69 115 2.70  14 2.71
                           111 2.82  87 2.90 114 2.98  70 2.98   2 3.07
  14  0.589  0.399  0.398-  72 2.60   2 2.62  95 2.67  91 2.68 111 2.69  12 2.70  13 2.71 116 2.72
                            96 2.95  71 2.95  67 2.95   3 3.11
  15  0.802  0.203  0.000- 108 2.58 107 2.59  27 2.65 123 2.67  21 2.69 102 2.69 109 2.71  87 2.72
                           110 2.95  26 2.98  89 3.02 106 3.03
  16  0.799  0.195  0.609- 108 2.51 105 2.63  88 2.66  30 2.66  24 2.75  85 2.75 124 2.76 112 2.77
                            86 2.93  25 2.95   4 3.02
  17  0.999  0.996  0.002-   1 2.55 102 2.56  34 2.56 122 2.58  44 2.60  21 2.62  39 2.62  20 2.62

  18  0.997  0.997  0.394- 119 2.53  23 2.54 104 2.56   1 2.59  41 2.61  36 2.64  46 2.68  19 2.71

  19  0.994  0.998  0.600-  24 2.51  37 2.53 105 2.55 120 2.60  47 2.63  20 2.65   7 2.68  18 2.71

  20  0.998  0.998  0.803-  38 2.57 121 2.58  43 2.59 106 2.60  25 2.60  17 2.62  42 2.63  19 2.65

  21  0.004  0.197  0.998-  43 2.51  25 2.57 106 2.61  17 2.62  49 2.62  26 2.65  22 2.65  15 2.69

  22  0.000  0.193  0.198- 102 2.53  23 2.56   1 2.56  44 2.60  50 2.62  21 2.65 107 2.65  27 2.67

  23  0.010  0.197  0.397-  45 2.46  18 2.54  22 2.56  51 2.60  28 2.69 124 2.70  24 2.73 103 2.79
                             1 2.94
  24  0.007  0.195  0.603-  19 2.51  46 2.52  52 2.57  25 2.62  29 2.67 104 2.70  23 2.73  16 2.75
                            47 2.91 124 3.06
  25  0.999  0.197  0.800-  21 2.57  20 2.60  48 2.61  47 2.61  24 2.62 108 2.63 105 2.64  30 2.64
                            16 2.95
  26  0.001  0.398  1.000-  30 2.55 108 2.59  48 2.60  27 2.61  54 2.62  21 2.65  31 2.65 109 2.68
                            15 2.98   5 3.04
  27  0.009  0.402  0.203-  28 2.52  55 2.52  49 2.54  26 2.61 110 2.65  15 2.65  22 2.67   5 2.71

  28  0.997  0.395  0.388-  27 2.52 107 2.54  50 2.61   8 2.62  32 2.62  23 2.69 111 2.74  29 2.91
                           124 2.93
  29  0.019  0.409  0.621-  56 2.40  30 2.55  51 2.60 124 2.66  24 2.67   6 2.70  52 2.84 112 2.85
                            28 2.91   8 2.94
  30  0.004  0.403  0.808-  26 2.55  53 2.55  29 2.55  33 2.63   4 2.64  25 2.64  52 2.65  16 2.66
                            31 2.92
  31  0.997  0.597  0.993-  33 2.48   4 2.54  34 2.61  58 2.62  53 2.62   5 2.63  26 2.65 113 2.67
                            30 2.92
  32  1.000  0.599  0.398-  36 2.59 110 2.60 115 2.61  28 2.62  55 2.63  60 2.63   5 2.66   6 2.69
                             8 3.02
  33  0.004  0.605  0.809-  31 2.48  57 2.54 112 2.59  38 2.63 117 2.63  56 2.63  30 2.63   6 2.67
                             4 3.01
  34  0.002  0.801  0.000-  35 2.56  17 2.56  40 2.56  38 2.58 117 2.59  31 2.61  57 2.61 118 2.64
                             1 2.99
  35  0.000  0.808  0.196-   1 2.47  41 2.54  34 2.56 119 2.56 113 2.61  58 2.63  36 2.67   5 2.68
                           118 2.89  40 2.91
  36  0.998  0.796  0.395-  32 2.59 114 2.62  59 2.62 120 2.63  18 2.64  37 2.66   7 2.67  35 2.67
                             5 2.97
  37  0.003  0.808  0.603-  19 2.53  42 2.57  60 2.61 115 2.62 121 2.64  36 2.66  38 2.67   6 2.70
                             7 2.97
  38  0.003  0.804  0.804-  20 2.57  34 2.58 116 2.61  39 2.61  61 2.62  33 2.63 122 2.66  37 2.67
                             6 3.03
  39  0.202  0.004  0.005-   2 2.49  40 2.58  42 2.59  43 2.59  38 2.61  17 2.62  57 2.65  62 2.67
                            63 2.88
  40  0.197  0.998  0.198-  34 2.56  41 2.57  39 2.58   1 2.59  67 2.59  44 2.61  63 2.61  58 2.63
                            35 2.91   2 3.01
  41  0.196  0.998  0.393-  35 2.54  45 2.57  59 2.57  40 2.57  18 2.61  68 2.65   9 2.68   7 2.68
                             1 2.97
  42  0.200  0.001  0.805-  66 2.53  37 2.57  61 2.57  39 2.59  47 2.61  65 2.62  20 2.63   7 2.70

  43  0.197  0.199  0.999-  21 2.51  66 2.55  48 2.56  44 2.59  20 2.59  39 2.59  71 2.61  47 2.61
                             2 2.98
  44  0.200  0.199  0.197-   2 2.56  43 2.59  22 2.60  49 2.60  17 2.60  40 2.61  72 2.62  45 2.62
                            67 2.90   1 3.04
  45  0.196  0.195  0.394-  23 2.46  67 2.52  41 2.57   1 2.58  44 2.62  50 2.63  46 2.64  73 2.67

  46  0.201  0.203  0.600-  51 2.48  24 2.52  68 2.60  74 2.62   7 2.63  45 2.64  47 2.66  18 2.68

  47  0.198  0.198  0.800-  52 2.58  42 2.61  25 2.61  43 2.61  70 2.62  19 2.63  69 2.63  46 2.66
                            24 2.91   7 3.00
  48  0.199  0.396  0.001-  43 2.56  49 2.59  26 2.60  25 2.61  70 2.62  53 2.63  52 2.63  76 2.64
                            75 2.89
  49  0.201  0.399  0.200-  27 2.54  71 2.56  50 2.59  48 2.59  44 2.60  54 2.61  21 2.62  77 2.62

  50  0.200  0.398  0.396-  72 2.50  49 2.59  28 2.61  22 2.62  45 2.63  55 2.68  51 2.69  10 2.84
                             8 2.99
  51  0.205  0.394  0.602-  46 2.48  73 2.55  29 2.60  23 2.60  52 2.63  78 2.64   8 2.66  50 2.69

  52  0.201  0.396  0.801-  75 2.53  24 2.57  47 2.58  74 2.60  56 2.62  51 2.63  48 2.63  30 2.65
                            29 2.84
  53  0.200  0.598  0.002-  30 2.55  54 2.56  75 2.56  79 2.58  56 2.60  31 2.62  48 2.63  57 2.64

  54  0.204  0.599  0.199-  53 2.56  55 2.56  76 2.59  80 2.59  49 2.61  26 2.62  58 2.63   5 2.69

  55  0.198  0.601  0.392-  27 2.52  54 2.56  32 2.63  81 2.64  59 2.64  77 2.64  50 2.68   8 2.69
                             5 3.00
  56  0.200  0.597  0.804-  29 2.40  53 2.60  52 2.62  33 2.63  78 2.64  61 2.69   8 2.72  11 2.73

  57  0.201  0.800  0.001-  63 2.48  33 2.54  58 2.59  61 2.60  34 2.61  53 2.64  39 2.65  11 2.98

  58  0.196  0.796  0.195-  57 2.59  31 2.62  54 2.63  40 2.63  35 2.63  59 2.65  79 2.65   9 2.66
                             5 2.95
  59  0.204  0.808  0.403-  41 2.57  64 2.60  36 2.62  80 2.63  55 2.64  58 2.65  60 2.66   5 2.68
                             9 2.98   7 2.99
  60  0.199  0.801  0.602-  81 2.59  37 2.61   7 2.63  32 2.63  65 2.63  61 2.63  59 2.66   8 2.69
                            82 2.91
  61  0.203  0.805  0.805-  82 2.54  42 2.57  57 2.60  62 2.61  38 2.62  60 2.63  56 2.69   6 2.75

  62  0.405  0.005  0.002-   3 2.49  63 2.53  65 2.58  83 2.60  61 2.61  66 2.62  39 2.67  11 2.80
                             2 2.98
  63  0.390  0.994  0.187-  57 2.48  62 2.53  84 2.57   2 2.61  40 2.61  12 2.65  79 2.68   9 2.70
                            39 2.88   3 3.03
  64  0.405  0.003  0.605-  81 2.54  89 2.56  59 2.60  68 2.61  86 2.61  65 2.64   7 2.67   9 2.68
                           123 3.00
  65  0.400  0.003  0.804-  82 2.54  62 2.58  87 2.59  42 2.62  69 2.63  60 2.63  64 2.64 123 2.64
                             7 3.04
  66  0.391  0.198  0.998-  42 2.53  43 2.55   2 2.56  70 2.57  69 2.61  62 2.62  13 2.64  87 2.66
                             3 3.02
  67  0.391  0.204  0.394-  45 2.52  72 2.57  40 2.59   2 2.61  12 2.65  91 2.66  68 2.70   9 2.73
                            44 2.90  14 2.95
  68  0.398  0.198  0.600-  73 2.58  88 2.60  46 2.60  64 2.61  92 2.64  41 2.65  69 2.66  67 2.70
                             7 2.98
  69  0.404  0.206  0.806-  90 2.53  74 2.59  89 2.61  66 2.61  65 2.63  47 2.63  68 2.66   7 2.67

  70  0.399  0.399  1.000-  75 2.49  66 2.57  74 2.61  90 2.61  47 2.62  94 2.62  48 2.62  71 2.65
                            13 2.98
  71  0.396  0.397  0.200-  49 2.56   2 2.59  76 2.61  43 2.61  72 2.62  70 2.65  95 2.67  13 2.69
                            14 2.95
  72  0.394  0.403  0.401-  50 2.50  67 2.57  77 2.57  14 2.60  71 2.62  44 2.62  73 2.64  96 2.68
                            10 3.02
  73  0.400  0.397  0.601-  51 2.55  91 2.56  68 2.58  74 2.61  97 2.61  72 2.64  45 2.67  10 2.70

  74  0.401  0.402  0.803-  78 2.54  69 2.59  52 2.60  92 2.61  70 2.61  73 2.61  46 2.62  93 2.66

  75  0.391  0.586  0.001-  70 2.49  52 2.53  76 2.54  53 2.56  93 2.61  78 2.65  11 2.66  99 2.69
                            48 2.89
  76  0.402  0.599  0.202-  75 2.54  77 2.57 100 2.58  54 2.59  94 2.59  79 2.60  71 2.61  48 2.64

  77  0.402  0.602  0.398-  80 2.55  76 2.57  72 2.57  95 2.58 101 2.62  49 2.62  55 2.64  10 2.71

  78  0.402  0.598  0.807-  74 2.54  56 2.64  51 2.64  75 2.65  97 2.66  10 2.68  11 2.78  82 2.78
                            98 2.79  93 2.80
  79  0.399  0.796  0.198-  85 2.52  53 2.58  76 2.60  80 2.65  99 2.65  58 2.65  63 2.68  11 2.77
                             9 3.03
  80  0.400  0.796  0.400-  77 2.55  81 2.59  54 2.59  86 2.63 100 2.63  59 2.63  79 2.65   9 2.66

  81  0.395  0.803  0.598-  64 2.54  80 2.59 123 2.59  60 2.59  82 2.60  55 2.64  10 2.67 101 2.69

  82  0.392  0.803  0.795-  61 2.54  65 2.54  11 2.58  81 2.60  98 2.64   8 2.65  83 2.71  78 2.78
                            60 2.91 123 2.95  10 3.02
  83  0.603  0.002  0.007- 107 2.54  84 2.59  62 2.60 123 2.64  87 2.67 102 2.69  82 2.71  98 2.72
                            11 2.83 103 2.90   3 2.96
  84  0.597  0.010  0.204-   3 2.51  63 2.57  83 2.59  85 2.60  11 2.61  99 2.72 124 2.74 103 2.74
                            12 2.90
  85  0.600  0.981  0.391- 100 2.44  79 2.52 104 2.58  84 2.60  86 2.68   9 2.72  16 2.75  12 2.80
                            99 2.87 124 3.25
  86  0.601  0.998  0.601- 101 2.61  64 2.61 105 2.62  80 2.63 108 2.63 123 2.66  85 2.68  88 2.70
                            16 2.93
  87  0.596  0.203  0.003-   3 2.52  65 2.59 110 2.61  89 2.64  66 2.66  90 2.67  83 2.67  15 2.72
                            13 2.90 123 3.12
  88  0.605  0.210  0.617-   4 2.49  89 2.51  91 2.57  68 2.60  16 2.66  86 2.70  12 2.75   9 2.75
                            92 2.89
  89  0.599  0.201  0.803-  88 2.51 109 2.54  64 2.56  69 2.61  87 2.64  92 2.64 108 2.65 123 2.69
                            15 3.02   4 3.05
  90  0.598  0.405  0.994-  92 2.52  69 2.53 114 2.56  70 2.61 109 2.62  13 2.65  87 2.67  93 2.77

  91  0.596  0.399  0.604-  73 2.56  88 2.57  92 2.57 112 2.59  96 2.59 117 2.65  67 2.66  14 2.68
                             4 3.02
  92  0.599  0.402  0.802-  90 2.52  97 2.54  91 2.57  74 2.61 113 2.61  89 2.64   4 2.64  68 2.64
                           109 2.88  88 2.89
  93  0.598  0.618  0.999-  97 2.55 119 2.59  75 2.61  94 2.64  74 2.66 113 2.70  90 2.77  78 2.80
                            99 2.82 118 2.91
  94  0.599  0.605  0.196-  99 2.56 114 2.58 120 2.59  76 2.59  70 2.62  93 2.64  95 2.65  13 2.69

  95  0.600  0.608  0.399- 100 2.48  77 2.58 121 2.60  94 2.65  14 2.67 115 2.67  71 2.67  96 2.68

  96  0.607  0.601  0.603- 116 2.42  10 2.58 122 2.59  91 2.59 101 2.62  97 2.63  72 2.68  95 2.68
                            14 2.95
  97  0.602  0.597  0.800-  92 2.54  93 2.55  98 2.56 117 2.58  73 2.61  96 2.63 118 2.66  78 2.66
                            10 2.93
  98  0.605  0.805  0.851- 102 2.45  97 2.56  82 2.64  83 2.72 118 2.73  10 2.74 123 2.79  78 2.79
                           122 2.82
  99  0.601  0.801  0.193-  94 2.56 104 2.57 119 2.64  79 2.65  75 2.69 100 2.72  84 2.72  11 2.78
                            93 2.82  85 2.87 103 2.89
 100  0.599  0.797  0.399-  85 2.44  95 2.48  76 2.58 105 2.59 120 2.62  80 2.63 101 2.68  99 2.72

 101  0.600  0.799  0.604- 106 2.59  86 2.61 121 2.61  77 2.62  96 2.62 100 2.68  81 2.69  10 2.85
                           123 2.99
 102  0.806  1.000  0.004-  98 2.45 103 2.52  22 2.53  17 2.56 118 2.58 106 2.59  15 2.69  83 2.69
                             1 2.94 123 3.09
 103  0.790  0.986  0.186- 102 2.52 119 2.58   1 2.65 104 2.70 107 2.71  84 2.74  23 2.79 118 2.87
                            99 2.89  83 2.90 124 3.25
 104  0.800  0.989  0.396- 120 2.52  18 2.56  99 2.57  85 2.58 103 2.70 105 2.70  24 2.70 124 2.81

 105  0.799  0.991  0.601- 121 2.50  19 2.55 100 2.59  86 2.62 106 2.63  16 2.63  25 2.64 104 2.70

 106  0.799  0.996  0.803- 122 2.58 102 2.59 101 2.59  20 2.60  21 2.61 105 2.63 123 2.64 108 2.67
                            15 3.03
 107  0.800  0.200  0.196-  83 2.54  28 2.54  15 2.59 110 2.63  22 2.65   3 2.68 124 2.70 103 2.71

 108  0.801  0.200  0.802-  16 2.51  15 2.58  26 2.59  86 2.63  25 2.63   4 2.64  89 2.65 106 2.67
                           123 3.09
 109  0.795  0.403  0.987-   4 2.46  89 2.54 113 2.57  90 2.62   5 2.67 110 2.68  26 2.68  15 2.71
                            92 2.88
 110  0.805  0.402  0.194- 111 2.52  32 2.60  87 2.61 107 2.63 114 2.64  27 2.65 109 2.68  13 2.69
                            15 2.95   5 2.97
 111  0.787  0.399  0.379- 110 2.52   3 2.53 115 2.54   6 2.69  14 2.69 124 2.71  28 2.74  13 2.82

 112  0.800  0.408  0.614-   4 2.48  91 2.59  33 2.59 116 2.65  16 2.77  12 2.80  29 2.85 117 2.89
                             6 2.96 124 3.13
 113  0.799  0.605  1.000- 118 2.53 117 2.56 109 2.57 114 2.60  92 2.61  35 2.61  31 2.67  93 2.70
                             5 3.02   4 3.05
 114  0.793  0.600  0.194- 119 2.53  90 2.56  94 2.58 113 2.60  36 2.62 110 2.64 115 2.66   5 2.69
                            13 2.98
 115  0.805  0.606  0.402- 111 2.54 120 2.54  32 2.61  37 2.62 114 2.66  95 2.67  13 2.70 116 2.74
                             6 2.94
 116  0.796  0.608  0.609-  96 2.42 121 2.53 117 2.58  38 2.61   6 2.62 112 2.65  14 2.72 115 2.74
                           122 2.92
 117  0.801  0.602  0.805- 113 2.56  97 2.58 116 2.58  34 2.59 122 2.59   4 2.60  33 2.63  91 2.65
                           112 2.89
 118  0.803  0.802  0.005- 113 2.53   1 2.53 102 2.58 122 2.59 119 2.59  34 2.64  97 2.66  98 2.73
                           103 2.87  35 2.89  93 2.91
 119  0.805  0.800  0.202-  18 2.53 114 2.53  35 2.56 103 2.58  93 2.59 118 2.59 120 2.60  99 2.64
                             1 3.00
 120  0.799  0.797  0.398- 104 2.52 115 2.54  94 2.59 119 2.60  19 2.60 100 2.62  36 2.63 121 2.69

 121  0.800  0.801  0.604- 105 2.50 116 2.53  20 2.58  95 2.60 101 2.61  37 2.64 122 2.66 120 2.69

 122  0.800  0.800  0.806- 106 2.58  17 2.58 118 2.59  96 2.59 117 2.59 121 2.66  38 2.66  98 2.82
                           116 2.92
 123  0.597  0.994  0.800-  81 2.59 106 2.64  83 2.64  65 2.64  86 2.66  15 2.67  89 2.69  98 2.79
                            82 2.95 101 2.99  64 3.00 102 3.09 108 3.09  87 3.12
 124  0.815  0.214  0.411-  29 2.66 107 2.70  23 2.70 111 2.71  84 2.74  16 2.76 104 2.81  12 2.81
                            28 2.93  24 3.06 112 3.13   3 3.20 103 3.25  85 3.25
 
  LATTYP: Found a triclinic cell.
 ALAT       =    13.1213514486
 B/A-ratio  =     1.6340986829
 C/A-ratio  =     1.9098641834
 COS(alpha) =     0.0001373337
 COS(beta)  =     0.5223382268
 COS(gamma) =     0.8168369773
  
  Lattice vectors:
  
 A1 = (  -7.5784932810,  -7.5673202570,   7.5810268140)
 A2 = ( -15.1698261740,   0.0039430650,  15.1531463720)
 A3 = (  -7.5128275220, -22.6970494610,  -7.5103213480)


Analysis of symmetry for initial positions (statically):
=====================================================================
 Subroutine PRICEL returns:
 Original cell was already a primitive cell.
 

 Routine SETGRP: Setting up the symmetry group for a 
 triclinic supercell.


 Subroutine GETGRP returns: Found  1 space group operations
 (whereof  1 operations were pure point group operations)
 out of a pool of  2 trial point group operations.


The static configuration has the point symmetry C_1 .


Analysis of symmetry for dynamics (positions and initial velocities):
=====================================================================
 Subroutine PRICEL returns:
 Original cell was already a primitive cell.
 

 Routine SETGRP: Setting up the symmetry group for a 
 triclinic supercell.


 Subroutine GETGRP returns: Found  1 space group operations
 (whereof  1 operations were pure point group operations)
 out of a pool of  2 trial point group operations.


The dynamic configuration has the point symmetry C_1 .


 Subroutine INISYM returns: Found  1 space group operations
 (whereof  1 operations are pure point group operations),
 and found     1 'primitive' translations


----------------------------------------------------------------------------------------

                                     Primitive cell                                     

  volume of cell :    1727.8235

  direct lattice vectors                    reciprocal lattice vectors
    -7.591332893  7.571263322  7.572119558     0.000287796  0.066095611  0.066263809
     7.538506746 -7.580117697  7.528135860     0.066383288  0.000095404  0.066456334
     7.578493281  7.567320257 -7.581026814     0.066207605  0.066112690  0.000270385

  length of vectors
    13.125904083 13.075171042 13.121351449     0.093592761  0.093931860  0.093564993

  position of ions in fractional coordinates (direct lattice)
     0.998718095  0.996621286  0.196570108
     0.393550446  0.196784540  0.193765543
     0.594021165  0.197519888  0.192789957
     0.800041796  0.401625734  0.801221968
     0.999736286  0.603035207  0.196436932
     0.987238980  0.595388233  0.597414468
     0.200034342  0.002042569  0.600475476
     0.196160503  0.591859998  0.593703646
     0.401758083  0.999928874  0.398362236
     0.419173751  0.613471109  0.614250250
     0.426647311  0.797661178  0.998039757
     0.589632321  0.193087776  0.396959082
     0.599163624  0.398942548  0.194534637
     0.589410651  0.399399655  0.397592946
     0.802212977  0.202774898  0.000079506
     0.799397550  0.194722272  0.608552068
     0.999486078  0.996444929  0.002431185
     0.997036127  0.997363779  0.393608526
     0.994383875  0.997795258  0.599605036
     0.997655499  0.998017409  0.802566395
     0.004329126  0.196532310  0.998172514
     0.000389189  0.193230979  0.197863119
     0.009805849  0.196513169  0.396789112
     0.007348721  0.195360690  0.603308406
     0.998995129  0.196625673  0.800484674
     0.001250011  0.398410186  0.999948719
     0.008984716  0.401503924  0.202682231
     0.997106939  0.394834528  0.387984504
     0.018999975  0.409101729  0.621457171
     0.003550393  0.402948833  0.808295197
     0.997031185  0.597251954  0.992861966
     0.999761939  0.599430007  0.398229361
     0.003824131  0.604694295  0.808894063
     0.002353396  0.800856528  0.000133244
     0.000085628  0.807928010  0.196402124
     0.997811446  0.795996972  0.394947939
     0.003202897  0.808478030  0.603107637
     0.002584688  0.803653339  0.804399356
     0.202168369  0.004363717  0.004828332
     0.196773588  0.998360564  0.197801319
     0.195658965  0.997973891  0.393396064
     0.199675242  0.000577223  0.805353993
     0.196590143  0.198703710  0.998851841
     0.200204383  0.199031515  0.197395135
     0.196173438  0.194946441  0.394395389
     0.200796680  0.202999912  0.599617637
     0.198282507  0.197998760  0.800024926
     0.198926387  0.396025476  0.000898028
     0.201061875  0.399278062  0.200031484
     0.199694448  0.397625448  0.396174384
     0.204533526  0.394407991  0.601715224
     0.200603016  0.396070573  0.801062080
     0.200322788  0.598113682  0.002453382
     0.203804483  0.599320618  0.198848914
     0.198279183  0.600604510  0.392298577
     0.199883297  0.597338593  0.803887977
     0.201099691  0.799828902  0.000951261
     0.196392079  0.796448748  0.195495771
     0.204207803  0.807761599  0.403311455
     0.198709118  0.801035966  0.601824382
     0.202690413  0.804591592  0.805044094
     0.404539820  0.004574262  0.002452115
     0.390288434  0.993985983  0.186624087
     0.405281273  0.003238900  0.604902376
     0.399643524  0.003191504  0.803922050
     0.390732424  0.198331252  0.998141470
     0.390895041  0.203661027  0.393723956
     0.397633319  0.198454883  0.599533871
     0.403714922  0.206337934  0.806461685
     0.399421145  0.398638747  0.999912214
     0.395648923  0.397437506  0.200166089
     0.393617152  0.403282800  0.400674463
     0.399892665  0.397134070  0.601462627
     0.401113871  0.402231642  0.802695570
     0.390741621  0.586395335  0.000589106
     0.401622858  0.599168470  0.201570048
     0.402083983  0.601938679  0.398482186
     0.402120525  0.598404068  0.806835534
     0.399441079  0.796447979  0.198325931
     0.399792835  0.796458471  0.400144571
     0.395407110  0.803293216  0.597859694
     0.391788894  0.803095377  0.794718657
     0.602975458  0.002036903  0.006603618
     0.596506062  0.010487235  0.203883271
     0.599547909  0.980566859  0.391190937
     0.601259255  0.997711632  0.600896923
     0.596285099  0.203114594  0.003303816
     0.605054494  0.210205288  0.616858249
     0.599040101  0.200693884  0.802621365
     0.598392313  0.404870301  0.994268580
     0.595866486  0.399019732  0.603548456
     0.599403401  0.402157147  0.801830412
     0.597576522  0.617890794  0.999341345
     0.598731168  0.604987489  0.196034394
     0.600496547  0.607605140  0.399421577
     0.607495314  0.600705186  0.603242478
     0.602016940  0.596778257  0.800448566
     0.605235071  0.804667349  0.851294633
     0.600975029  0.800581572  0.193284056
     0.599436859  0.796787801  0.398595660
     0.600493913  0.799180522  0.603826021
     0.806498186  0.999744916  0.004062698
     0.789931015  0.985820641  0.185534736
     0.800444567  0.989314066  0.395590561
     0.798622731  0.990734141  0.601143899
     0.799435418  0.996223612  0.803344641
     0.799825889  0.199759419  0.195951464
     0.800634676  0.200447159  0.802377446
     0.794943430  0.403047637  0.987233557
     0.804722916  0.401835570  0.194000223
     0.787396861  0.399359599  0.378847953
     0.799562970  0.408421330  0.614136815
     0.798975672  0.605020930  0.999843327
     0.792826198  0.599618310  0.194170644
     0.804550234  0.606095728  0.402454921
     0.795819989  0.607976358  0.608692311
     0.801253642  0.601797855  0.804588157
     0.803459483  0.801588632  0.004854144
     0.804508084  0.799762745  0.202152563
     0.799081713  0.797200862  0.397646485
     0.800117100  0.800885331  0.603951949
     0.799516732  0.800097521  0.805997561
     0.596541564  0.993545134  0.800420173
     0.814785064  0.213790510  0.410677076

  ion indices of the primitive-cell ions
   primitive index   ion index
                 1           1
                 2           2
                 3           3
                 4           4
                 5           5
                 6           6
                 7           7
                 8           8
                 9           9
                10          10
                11          11
                12          12
                13          13
                14          14
                15          15
                16          16
                17          17
                18          18
                19          19
                20          20
                21          21
                22          22
                23          23
                24          24
                25          25
                26          26
                27          27
                28          28
                29          29
                30          30
                31          31
                32          32
                33          33
                34          34
                35          35
                36          36
                37          37
                38          38
                39          39
                40          40
                41          41
                42          42
                43          43
                44          44
                45          45
                46          46
                47          47
                48          48
                49          49
                50          50
                51          51
                52          52
                53          53
                54          54
                55          55
                56          56
                57          57
                58          58
                59          59
                60          60
                61          61
                62          62
                63          63
                64          64
                65          65
                66          66
                67          67
                68          68
                69          69
                70          70
                71          71
                72          72
                73          73
                74          74
                75          75
                76          76
                77          77
                78          78
                79          79
                80          80
                81          81
                82          82
                83          83
                84          84
                85          85
                86          86
                87          87
                88          88
                89          89
                90          90
                91          91
                92          92
                93          93
                94          94
                95          95
                96          96
                97          97
                98          98
                99          99
               100         100
               101         101
               102         102
               103         103
               104         104
               105         105
               106         106
               107         107
               108         108
               109         109
               110         110
               111         111
               112         112
               113         113
               114         114
               115         115
               116         116
               117         117
               118         118
               119         119
               120         120
               121         121
               122         122
               123         123
               124         124

----------------------------------------------------------------------------------------

 
 
 KPOINTS: KPOINTS generated by db_to_vasp         

Automatic generation of k-mesh.
 Grid dimensions read from file:
 generate k-points for:    4    4    4

 Generating k-lattice:

  Cartesian coordinates                     Fractional coordinates (reciprocal lattice)
     0.000071949  0.016523903  0.016565952     0.250000000  0.000000000 -0.000000000
     0.016595822  0.000023851  0.016614084    -0.000000000  0.250000000 -0.000000000
     0.016551901  0.016528173  0.000067596     0.000000000 -0.000000000  0.250000000

  Length of vectors
     0.023398190  0.023482965  0.023391248

  Shift w.r.t. Gamma in fractional coordinates (k-lattice)
     0.000000000  0.000000000  0.000000000

 
 Subroutine IBZKPT returns following result:
 ===========================================
 
 Found     36 irreducible k-points:
 
 Following reciprocal coordinates:
            Coordinates               Weight
  0.000000  0.000000  0.000000      1.000000
  0.250000  0.000000  0.000000      2.000000
  0.500000  0.000000  0.000000      1.000000
  0.000000  0.250000  0.000000      2.000000
  0.250000  0.250000  0.000000      2.000000
  0.500000  0.250000  0.000000      2.000000
 -0.250000  0.250000  0.000000      2.000000
  0.000000  0.500000  0.000000      1.000000
  0.250000  0.500000  0.000000      2.000000
  0.500000  0.500000  0.000000      1.000000
  0.000000  0.000000  0.250000      2.000000
  0.250000  0.000000  0.250000      2.000000
  0.500000  0.000000  0.250000      2.000000
 -0.250000  0.000000  0.250000      2.000000
  0.000000  0.250000  0.250000      2.000000
  0.250000  0.250000  0.250000      2.000000
  0.500000  0.250000  0.250000      2.000000
 -0.250000  0.250000  0.250000      2.000000
  0.000000  0.500000  0.250000      2.000000
  0.250000  0.500000  0.250000      2.000000
  0.500000  0.500000  0.250000      2.000000
 -0.250000  0.500000  0.250000      2.000000
  0.000000 -0.250000  0.250000      2.000000
  0.250000 -0.250000  0.250000      2.000000
  0.500000 -0.250000  0.250000      2.000000
 -0.250000 -0.250000  0.250000      2.000000
  0.000000  0.000000  0.500000      1.000000
  0.250000  0.000000  0.500000      2.000000
  0.500000  0.000000  0.500000      1.000000
  0.000000  0.250000  0.500000      2.000000
  0.250000  0.250000  0.500000      2.000000
  0.500000  0.250000  0.500000      2.000000
 -0.250000  0.250000  0.500000      2.000000
  0.000000  0.500000  0.500000      1.000000
  0.250000  0.500000  0.500000      2.000000
  0.500000  0.500000  0.500000      1.000000
 
 Following cartesian coordinates:
            Coordinates               Weight
  0.000000  0.000000  0.000000      1.000000
  0.000072  0.016524  0.016566      2.000000
  0.000144  0.033048  0.033132      1.000000
  0.016596  0.000024  0.016614      2.000000
  0.016668  0.016548  0.033180      2.000000
  0.016740  0.033072  0.049746      2.000000
  0.016524 -0.016500  0.000048      2.000000
  0.033192  0.000048  0.033228      1.000000
  0.033264  0.016572  0.049794      2.000000
  0.033336  0.033096  0.066360      1.000000
  0.016552  0.016528  0.000068      2.000000
  0.016624  0.033052  0.016634      2.000000
  0.016696  0.049576  0.033200      2.000000
  0.016480  0.000004 -0.016498      2.000000
  0.033148  0.016552  0.016682      2.000000
  0.033220  0.033076  0.033248      2.000000
  0.033292  0.049600  0.049814      2.000000
  0.033076  0.000028  0.000116      2.000000
  0.049744  0.016576  0.033296      2.000000
  0.049815  0.033100  0.049862      2.000000
  0.049887  0.049624  0.066428      2.000000
  0.049672  0.000052  0.016730      2.000000
 -0.000044  0.016504 -0.016546      2.000000
  0.000028  0.033028  0.000019      2.000000
  0.000100  0.049552  0.016585      2.000000
 -0.000116 -0.000020 -0.033112      2.000000
  0.033104  0.033056  0.000135      1.000000
  0.033176  0.049580  0.016701      2.000000
  0.033248  0.066104  0.033267      1.000000
  0.049700  0.033080  0.016749      2.000000
  0.049772  0.049604  0.033315      2.000000
  0.049844  0.066128  0.049881      2.000000
  0.049628  0.016556  0.000183      2.000000
  0.066295  0.033104  0.033363      1.000000
  0.066367  0.049628  0.049929      2.000000
  0.066439  0.066152  0.066495      1.000000
 


--------------------------------------------------------------------------------------------------------




 Dimension of arrays:
   k-points           NKPTS =     36   k-points in BZ     NKDIM =     36   number of bands    NBANDS=    816
   number of dos      NEDOS =    301   number of ions     NIONS =    124
   non local maximal  LDIM  =      6   non local SUM 2l+1 LMDIM =     18
   total plane-waves  NPLWV = 941192
   max r-space proj   IRMAX =      1   max aug-charges    IRDMAX=  31289
   dimension x,y,z NGX =    98 NGY =   98 NGZ =   98
   dimension x,y,z NGXF=   196 NGYF=  196 NGZF=  196
   support grid    NGXF=   196 NGYF=  196 NGZF=  196
   ions per type =               4  12 106   1   1
   NGX,Y,Z   is equivalent  to a cutoff of  12.41, 12.46, 12.42 a.u.
   NGXF,Y,Z  is equivalent  to a cutoff of  24.82, 24.92, 24.83 a.u.

 SYSTEM =  unknown system                          
 POSCAR =  Cr Ti V  W  Zr                          

 Startparameter for this run:
   NWRITE =      2    write-flag & timer
   PREC   = accura    normal or accurate (medium, high low for compatibility)
   ISTART =      0    job   : 0-new  1-cont  2-samecut
   ICHARG =      2    charge: 1-file 2-atom 10-const
   ISPIN  =      1    spin polarized calculation?
   LNONCOLLINEAR =      F non collinear calculations
   LSORBIT =      F    spin-orbit coupling
   INIWAV =      1    electr: 0-lowe 1-rand  2-diag
   LASPH  =      F    aspherical Exc in radial PAW
 Electronic Relaxation 1
   ENCUT  =  520.0 eV  38.22 Ry    6.18 a.u.  24.41 24.31 24.40*2*pi/ulx,y,z
   ENINI  =  520.0     initial cutoff
   ENAUG  =  598.5 eV  augmentation charge cutoff
   NELM   =    100;   NELMIN=  2; NELMDL= -5     # of ELM steps 
   EDIFF  = 0.1E-05   stopping-criterion for ELM
   LREAL  =      F    real-space projection
   NLSPLINE    = F    spline interpolate recip. space projectors
   LCOMPAT=      F    compatible to vasp.4.4
   GGA_COMPAT  = T    GGA compatible to vasp.4.4-vasp.4.6
   LMAXPAW     = -100 max onsite density
   LMAXMIX     =    2 max onsite mixed and CHGCAR
   VOSKOWN=      0    Vosko Wilk Nusair interpolation
   ROPT   =    0.00000   0.00000   0.00000   0.00000
   ROPT   =    0.00000
 Ionic relaxation
   EDIFFG = -.1E-01   stopping-criterion for IOM
   NSW    =     -1    number of steps for IOM
   NBLOCK =      1;   KBLOCK =      1    inner block; outer block 
   IBRION =      2    ionic relax: 0-MD 1-quasi-New 2-CG
   NFREE  =      1    steps in history (QN), initial steepest desc. (CG)
   ISIF   =      2    stress and relaxation
   IWAVPR =     11    prediction:  0-non 1-charg 2-wave 3-comb
   ISYM   =      2    0-nonsym 1-usesym 2-fastsym
   LCORR  =      T    Harris-Foulkes like correction to forces

   POTIM  = 0.2000    time-step for ionic-motion
   TEIN   =    0.0    initial temperature
   TEBEG  =    0.0;   TEEND  =   0.0 temperature during run
   SMASS  =  -3.00    Nose mass-parameter (am)
   estimated Nose-frequenzy (Omega)   =  0.10E-29 period in steps = 0.31E+47 mass=  -0.394E-26a.u.
   SCALEE = 1.0000    scale energy and forces
   NPACO  =    256;   APACO  = 10.0  distance and # of slots for P.C.
   PSTRESS=    0.0 pullay stress

  Mass of Ions in am
   POMASS =  52.00 47.88 50.94183.85 91.22
  Ionic Valenz
   ZVAL   =  12.00 10.00 11.00 14.00 12.00
  Atomic Wigner-Seitz radii
   RWIGS  =  -1.00 -1.00 -1.00 -1.00 -1.00
  virtual crystal weights 
   VCA    =   1.00  1.00  1.00  1.00  1.00
   NELECT =    1360.0000    total number of electrons
   NUPDOWN=      -1.0000    fix difference up-down

 DOS related values:
   EMIN   =  10.00;   EMAX   =-10.00  energy-range for DOS
   EFERMI =   0.00;   METHOD = LEGACY      
   ISMEAR =     1;   SIGMA  =   0.20  broadening in eV -4-tet -1-fermi 0-gaus

 Electronic relaxation 2 (details)
   IALGO  =     38    algorithm
   LDIAG  =      T    sub-space diagonalisation (order eigenvalues)
   LSUBROT=      F    optimize rotation matrix (better conditioning)
   TURBO    =      0    0=normal 1=particle mesh
   IRESTART =      0    0=no restart 2=restart with 2 vectors
   NREBOOT  =      0    no. of reboots
   NMIN     =      0    reboot dimension
   EREF     =   0.00    reference energy to select bands
   IMIX   =      4    mixing-type and parameters
     AMIX     =   0.40;   BMIX     =  1.00
     AMIX_MAG =   1.60;   BMIX_MAG =  1.00
     AMIN     =   0.10
     WC   =   100.;   INIMIX=   1;  MIXPRE=   1;  MAXMIX= -45

 Intra band minimization:
   WEIMIN = 0.0010     energy-eigenvalue tresh-hold
   EBREAK =  0.31E-09  absolut break condition
   DEPER  =   0.30     relativ break condition  

   TIME   =   0.40     timestep for ELM

  volume/ion in A,a.u.               =      13.93        94.03
  Fermi-wavevector in a.u.,A,eV,Ry     =   1.511546  2.856408 31.086197  2.284771
  Thomas-Fermi vector in A             =   2.621589
 
 Write flags
   LWAVE        =      F    write WAVECAR
   LDOWNSAMPLE  =      F    k-point downsampling of WAVECAR
   LCHARG       =      T    write CHGCAR
   LVTOT        =      F    write LOCPOT, total local potential
   LVHAR        =      F    write LOCPOT, Hartree potential only
   LELF         =      F    write electronic localiz. function (ELF)
   LORBIT       =     11    0 simple, 1 ext, 2 COOP (PROOUT), +10 PAW based schemes


 Dipole corrections
   LMONO  =      F    monopole corrections only (constant potential shift)
   LDIPOL =      F    correct potential (dipole corrections)
   IDIPOL =      0    1-x, 2-y, 3-z, 4-all directions 
   EPSILON=  1.0000000 bulk dielectric constant

 Exchange correlation treatment:
   GGA     =    PE    GGA type
   LEXCH   =     8    internal setting for exchange type
   LIBXC   =     F    Libxc                    
   VOSKOWN =     0    Vosko Wilk Nusair interpolation
   LHFCALC =     F    Hartree Fock is set to
   LHFONE  =     F    Hartree Fock one center treatment
   AEXX    =    0.0000 exact exchange contribution

 Linear response parameters
   LEPSILON=     F    determine dielectric tensor
   LRPA    =     F    only Hartree local field effects (RPA)
   LNABLA  =     F    use nabla operator in PAW spheres
   LVEL    =     F    velocity operator in full k-point grid
   CSHIFT  =0.1000    complex shift for real part using Kramers Kronig
   OMEGAMAX=  -1.0    maximum frequency
   DEG_THRESHOLD= 0.2000000E-02 threshold for treating states as degnerate
   RTIME   =   -0.100 relaxation time in fs
  (WPLASMAI=    0.000 imaginary part of plasma frequency in eV, 0.658/RTIME)
   DFIELD  = 0.0000000 0.0000000 0.0000000 field for delta impulse in time
 
  Optional k-point grid parameters
   LKPOINTS_OPT  =     F    use optional k-point grid
   KPOINTS_OPT_MODE=     1    mode for optional k-point grid
 
 Orbital magnetization related:
   ORBITALMAG=     F  switch on orbital magnetization
   LCHIMAG   =     F  perturbation theory with respect to B field
   DQ        =  0.001000  dq finite difference perturbation B field
   LLRAUG    =     F  two centre corrections for induced B field
   LBONE     =     F  B-component reconstruction in AE one-centre
   LVGVCALC  =     T  calculate vGv susceptibility
   LVGVAPPL  =     F  apply vGv susceptibility instead of pGv for G=0

 Random number generation:
   RANDOM_GENERATOR = DEFAULT
   PCG_SEED         = not used


--------------------------------------------------------------------------------------------------------


 conjugate gradient relaxation of ions
 charge density and potential will be updated during run
 non-spin polarized calculation
 Variant of blocked Davidson
 Davidson routine will perform the subspace rotation
 perform sub-space diagonalisation
    after iterative eigenvector-optimisation
 modified Broyden-mixing scheme, WC =      100.0
 initial mixing is a Kerker type mixing with AMIX =  0.4000 and BMIX =      1.0000
 Hartree-type preconditioning will be used
 using additional bands           136
 reciprocal scheme for non local part
 use partial core corrections
 calculate Harris-corrections to forces 
   (improved forces if not selfconsistent)
 use gradient corrections 
 use of overlap-Matrix (Vanderbilt PP)
 Methfessel and Paxton  Order N= 1 SIGMA  =   0.20


--------------------------------------------------------------------------------------------------------


  energy-cutoff  :      520.00
  volume of cell :     1727.82
      direct lattice vectors                 reciprocal lattice vectors
    -7.591332893  7.571263322  7.572119558     0.000287796  0.066095611  0.066263809
     7.538506746 -7.580117697  7.528135860     0.066383288  0.000095404  0.066456334
     7.578493281  7.567320257 -7.581026814     0.066207605  0.066112690  0.000270385

  length of vectors
    13.125904083 13.075171042 13.121351449     0.093592761  0.093931860  0.093564993


 
 k-points in units of 2pi/SCALE and weight: KPOINTS generated by db_to_vasp         
   0.00000000  0.00000000  0.00000000       0.016
   0.00007195  0.01652390  0.01656595       0.031
   0.00014390  0.03304781  0.03313190       0.016
   0.01659582  0.00002385  0.01661408       0.031
   0.01666777  0.01654775  0.03318004       0.031
   0.01673972  0.03307166  0.04974599       0.031
   0.01652387 -0.01650005  0.00004813       0.031
   0.03319164  0.00004770  0.03322817       0.016
   0.03326359  0.01657160  0.04979412       0.031
   0.03333554  0.03309551  0.06636007       0.016
   0.01655190  0.01652817  0.00006760       0.031
   0.01662385  0.03305208  0.01663355       0.031
   0.01669580  0.04957598  0.03319950       0.031
   0.01647995  0.00000427 -0.01649836       0.031
   0.03314772  0.01655202  0.01668168       0.031
   0.03321967  0.03307593  0.03324763       0.031
   0.03329162  0.04959983  0.04981358       0.031
   0.03307577  0.00002812  0.00011573       0.031
   0.04974355  0.01657587  0.03329576       0.031
   0.04981549  0.03309978  0.04986172       0.031
   0.04988744  0.04962368  0.06642767       0.031
   0.04967160  0.00005197  0.01672981       0.031
  -0.00004392  0.01650432 -0.01654649       0.031
   0.00002803  0.03302822  0.00001946       0.031
   0.00009998  0.04955213  0.01658542       0.031
  -0.00011587 -0.00001958 -0.03311244       0.031
   0.03310380  0.03305635  0.00013519       0.016
   0.03317575  0.04958025  0.01670114       0.031
   0.03324770  0.06610415  0.03326710       0.016
   0.04969962  0.03308020  0.01674928       0.031
   0.04977157  0.04960410  0.03331523       0.031
   0.04984352  0.06612800  0.04988118       0.031
   0.04962768  0.01655629  0.00018332       0.031
   0.06629545  0.03310405  0.03336336       0.016
   0.06636740  0.04962795  0.04992931       0.031
   0.06643934  0.06615185  0.06649526       0.016
 
 k-points in reciprocal lattice and weights: KPOINTS generated by db_to_vasp         
   0.00000000  0.00000000  0.00000000       0.016
   0.25000000  0.00000000  0.00000000       0.031
   0.50000000  0.00000000  0.00000000       0.016
   0.00000000  0.25000000  0.00000000       0.031
   0.25000000  0.25000000  0.00000000       0.031
   0.50000000  0.25000000  0.00000000       0.031
  -0.25000000  0.25000000  0.00000000       0.031
   0.00000000  0.50000000  0.00000000       0.016
   0.25000000  0.50000000  0.00000000       0.031
   0.50000000  0.50000000  0.00000000       0.016
   0.00000000  0.00000000  0.25000000       0.031
   0.25000000  0.00000000  0.25000000       0.031
   0.50000000  0.00000000  0.25000000       0.031
  -0.25000000  0.00000000  0.25000000       0.031
   0.00000000  0.25000000  0.25000000       0.031
   0.25000000  0.25000000  0.25000000       0.031
   0.50000000  0.25000000  0.25000000       0.031
  -0.25000000  0.25000000  0.25000000       0.031
   0.00000000  0.50000000  0.25000000       0.031
   0.25000000  0.50000000  0.25000000       0.031
   0.50000000  0.50000000  0.25000000       0.031
  -0.25000000  0.50000000  0.25000000       0.031
   0.00000000 -0.25000000  0.25000000       0.031
   0.25000000 -0.25000000  0.25000000       0.031
   0.50000000 -0.25000000  0.25000000       0.031
  -0.25000000 -0.25000000  0.25000000       0.031
   0.00000000  0.00000000  0.50000000       0.016
   0.25000000  0.00000000  0.50000000       0.031
   0.50000000  0.00000000  0.50000000       0.016
   0.00000000  0.25000000  0.50000000       0.031
   0.25000000  0.25000000  0.50000000       0.031
   0.50000000  0.25000000  0.50000000       0.031
  -0.25000000  0.25000000  0.50000000       0.031
   0.00000000  0.50000000  0.50000000       0.016
   0.25000000  0.50000000  0.50000000       0.031
   0.50000000  0.50000000  0.50000000       0.016
 
 position of ions in fractional coordinates (direct lattice) 
   0.99871810  0.99662129  0.19657011
   0.39355045  0.19678454  0.19376554
   0.59402116  0.19751989  0.19278996
   0.80004180  0.40162573  0.80122197
   0.99973629  0.60303521  0.19643693
   0.98723898  0.59538823  0.59741447
   0.20003434  0.00204257  0.60047548
   0.19616050  0.59186000  0.59370365
   0.40175808  0.99992887  0.39836224
   0.41917375  0.61347111  0.61425025
   0.42664731  0.79766118  0.99803976
   0.58963232  0.19308778  0.39695908
   0.59916362  0.39894255  0.19453464
   0.58941065  0.39939966  0.39759295
   0.80221298  0.20277490  0.00007951
   0.79939755  0.19472227  0.60855207
   0.99948608  0.99644493  0.00243119
   0.99703613  0.99736378  0.39360853
   0.99438388  0.99779526  0.59960504
   0.99765550  0.99801741  0.80256640
   0.00432913  0.19653231  0.99817251
   0.00038919  0.19323098  0.19786312
   0.00980585  0.19651317  0.39678911
   0.00734872  0.19536069  0.60330841
   0.99899513  0.19662567  0.80048467
   0.00125001  0.39841019  0.99994872
   0.00898472  0.40150392  0.20268223
   0.99710694  0.39483453  0.38798450
   0.01899998  0.40910173  0.62145717
   0.00355039  0.40294883  0.80829520
   0.99703118  0.59725195  0.99286197
   0.99976194  0.59943001  0.39822936
   0.00382413  0.60469430  0.80889406
   0.00235340  0.80085653  0.00013324
   0.00008563  0.80792801  0.19640212
   0.99781145  0.79599697  0.39494794
   0.00320290  0.80847803  0.60310764
   0.00258469  0.80365334  0.80439936
   0.20216837  0.00436372  0.00482833
   0.19677359  0.99836056  0.19780132
   0.19565897  0.99797389  0.39339606
   0.19967524  0.00057722  0.80535399
   0.19659014  0.19870371  0.99885184
   0.20020438  0.19903151  0.19739513
   0.19617344  0.19494644  0.39439539
   0.20079668  0.20299991  0.59961764
   0.19828251  0.19799876  0.80002493
   0.19892639  0.39602548  0.00089803
   0.20106187  0.39927806  0.20003148
   0.19969445  0.39762545  0.39617438
   0.20453353  0.39440799  0.60171522
   0.20060302  0.39607057  0.80106208
   0.20032279  0.59811368  0.00245338
   0.20380448  0.59932062  0.19884891
   0.19827918  0.60060451  0.39229858
   0.19988330  0.59733859  0.80388798
   0.20109969  0.79982890  0.00095126
   0.19639208  0.79644875  0.19549577
   0.20420780  0.80776160  0.40331145
   0.19870912  0.80103597  0.60182438
   0.20269041  0.80459159  0.80504409
   0.40453982  0.00457426  0.00245212
   0.39028843  0.99398598  0.18662409
   0.40528127  0.00323890  0.60490238
   0.39964352  0.00319150  0.80392205
   0.39073242  0.19833125  0.99814147
   0.39089504  0.20366103  0.39372396
   0.39763332  0.19845488  0.59953387
   0.40371492  0.20633793  0.80646168
   0.39942114  0.39863875  0.99991221
   0.39564892  0.39743751  0.20016609
   0.39361715  0.40328280  0.40067446
   0.39989267  0.39713407  0.60146263
   0.40111387  0.40223164  0.80269557
   0.39074162  0.58639534  0.00058911
   0.40162286  0.59916847  0.20157005
   0.40208398  0.60193868  0.39848219
   0.40212053  0.59840407  0.80683553
   0.39944108  0.79644798  0.19832593
   0.39979284  0.79645847  0.40014457
   0.39540711  0.80329322  0.59785969
   0.39178889  0.80309538  0.79471866
   0.60297546  0.00203690  0.00660362
   0.59650606  0.01048723  0.20388327
   0.59954791  0.98056686  0.39119094
   0.60125926  0.99771163  0.60089692
   0.59628510  0.20311459  0.00330382
[...]
   0.185E+02 -.660E+02 0.339E+02   -.183E+02 0.665E+02 -.343E+02   -.179E+00 -.489E+00 0.425E+00   -.153E-02 -.360E-02 0.218E-02
   0.341E+02 -.559E+02 0.689E+02   -.337E+02 0.564E+02 -.689E+02   -.438E+00 -.445E+00 -.170E-01   0.172E-02 0.997E-03 -.347E-03
   0.182E+03 -.655E+01 -.175E+02   -.182E+03 0.698E+01 0.178E+02   0.214E+00 -.436E+00 -.290E+00   0.656E-02 0.513E-02 -.339E-03
   0.388E+02 0.516E+02 -.180E+02   -.393E+02 -.515E+02 0.180E+02   0.558E+00 -.408E-01 0.327E-01   0.363E-02 -.861E-03 0.289E-02
   -.708E+02 0.135E+03 0.142E+03   0.707E+02 -.135E+03 -.141E+03   0.116E+00 -.113E+00 -.454E+00   -.329E-02 -.719E-02 -.146E-02
   -.348E+02 0.101E+03 0.575E+02   0.350E+02 -.101E+03 -.580E+02   -.122E+00 -.136E+00 0.452E+00   -.630E-03 -.721E-02 0.163E-02
   0.108E+02 -.109E+02 0.106E+02   -.106E+02 0.114E+02 -.108E+02   -.166E+00 -.519E+00 0.192E+00   0.289E-02 -.457E-03 0.181E-02
   0.533E+02 0.390E+01 0.217E+02   -.534E+02 -.379E+01 -.217E+02   0.120E+00 -.106E+00 0.587E-01   0.698E-02 0.400E-02 -.190E-02
   -.633E+01 0.938E+02 0.606E+02   0.597E+01 -.935E+02 -.603E+02   0.342E+00 -.227E+00 -.284E+00   0.261E-02 -.142E-02 -.309E-02
   0.351E+02 -.590E+02 0.563E+02   -.350E+02 0.584E+02 -.560E+02   -.845E-01 0.519E+00 -.284E+00   -.876E-02 0.371E-02 -.167E-02
   -.863E+02 0.200E+01 0.543E+02   0.857E+02 -.212E+01 -.543E+02   0.603E+00 0.124E+00 -.705E-01   -.222E-03 0.380E-02 -.157E-02
 -----------------------------------------------------------------------------------------------
   -.241E+00 -.371E+00 0.569E+00   0.284E-12 -.225E-11 0.110E-11   0.241E+00 0.387E+00 -.567E+00   0.741E-03 -.114E-01 0.643E-03
 
 
 POSITION                                       TOTAL-FORCE (eV/Angst)
 -----------------------------------------------------------------------------------
      1.42114      1.49456     13.57491        -0.000116     -0.002680     -0.006043
     -0.03566      2.95431      2.99249        -0.000960      0.001983      0.000345
     -1.55935      4.45917      4.52341        -0.001907      0.002873      0.002364
      3.02633      9.07606      3.00742         0.003105      0.000203      0.001325
     -1.55465      4.48469     10.62066         0.000794     -0.001059      0.003640
      1.52138      7.48236      7.42864         0.004252      0.000053     -0.004925
      3.04757      6.04302     -3.02216        -0.001931      0.000403     -0.003101
      7.47200      1.49156      1.44007         0.006551     -0.011297     -0.009510
      7.50708     -1.52323      7.54977        -0.000705      0.002937     -0.000598
      6.09766      3.17172      3.13568        -0.035463     -0.025876     -0.047115
     10.33799      4.73638      1.66936        -0.006652      0.002464      0.008551
     -0.01215      6.00455      2.90900        -0.000470      0.001650      0.001834
     -0.06674      2.98450      6.06546         0.005054     -0.002841     -0.000592
      1.54962      4.44380      4.45566         0.001212     -0.002754     -0.004771
     -4.56064      4.53731      7.60037         0.005277      0.003972      0.006414
      0.01133      9.18154      2.90558        -0.000553     -0.001388     -0.003028
     -0.05730      0.03260     15.05117         0.000330      0.001529     -0.002867
      2.93276      2.96725     12.07401        -0.000955      0.003311     -0.001553
      4.51729      4.50274     10.49551        -0.001187      0.004192     -0.002162
      6.03227      6.06170      8.98330        -0.001225      0.005681      0.004203
      9.01334      6.09653     -6.05487        -0.001791      0.002039     -0.000052
      2.95322      0.03553     -0.04239        -0.002987     -0.000983     -0.010673
      4.41404      1.58728     -1.45444         0.000321      0.001417     -0.005721
      5.98911      3.14021     -3.04735         0.000823     -0.000422     -0.001529
     -0.03497     12.13073      2.97624         0.002051      0.001801      0.002780
     10.57203      4.55640     -4.57189         0.003521      0.001257      0.002716
      4.49456     -1.44166      1.55407         0.002999      0.001766      0.000624
     -1.65257      7.49247      7.58126        -0.000797     -0.008107     -0.005579
      7.64949      1.74558     -1.48764        -0.000820      0.001612      0.001174
      9.13634      3.08911     -3.06737        -0.000754      0.001887      0.001518
      4.45799     10.53485      4.51892         0.000526     -0.001613      0.002370
     -0.05274      6.03924      9.06392         0.000257     -0.002634     -0.002753
     10.65966      1.56646     -1.55107        -0.002065      0.006161      0.000724
      6.02041     -6.05176      6.04577         0.003159      0.001040     -0.000785
      7.57835     -4.63730      4.59391         0.000486     -0.008454      0.003390
      1.41902      4.50964     10.55381        -0.004360      0.002102      0.002769
     10.64105     -1.54020      1.53841        -0.001953      0.004763      0.000918
     12.13486      0.01493     -0.02859        -0.003184      0.011007      0.004284
     -1.46524      1.53413      1.52709        -0.001315      0.008372      0.002561
      7.53141     -4.58104      7.50625        -0.002740      0.004508      0.001124
      9.01927     -3.10642      6.01209        -0.001499      0.001532      0.000590
      4.59192      7.60179     -4.58910        -0.000068      0.002681     -0.000523
      7.57534      7.54087     -4.58785         0.001059      0.001088      0.000906
      1.47654      1.50087      1.51785        -0.000998      0.001539     -0.004386
      2.96931      2.99208     -0.03689        -0.003061     -0.000944     -0.003302
      4.55020      4.51902     -1.49705         0.000862     -0.002199     -0.002821
      6.05037      6.05444     -3.07303         0.003127     -0.000992     -0.001355
      1.48213     -1.48900      4.48082         0.001663      0.000045      0.002107
      2.99957      0.00942      3.01184        -0.003558     -0.001818     -0.003358
      4.48396      1.49587      1.50208        -0.004452     -0.004598     -0.008699
      5.98066      3.11229     -0.04371        -0.000856     -0.004027      0.002109
      7.53378      4.57845     -1.57221         0.000470     -0.000178      0.004817
      3.00676     -2.99851      6.00095        -0.002794      0.001703      0.004784
      4.47781     -1.49511      4.54752        -0.001931     -0.000998      0.000013
      5.99549     -0.08278      3.04880        -0.000196      0.005345     -0.002511
      9.07792      3.06875     -0.08391        -0.005632      0.005179     -0.000289
      4.51011     -4.53302      7.53676        -0.004740      0.006832      0.003699
      5.99472     -3.07086      6.00082        -0.000229     -0.000342      0.002909
      7.59560     -1.52483      4.56971        -0.000820      0.000868      0.001085
      9.09107     -0.01327      2.97251        -0.005192      0.002742      0.004128
     10.62775      1.52775      1.48881        -0.002583      0.008835      0.001087
     -3.01793      3.04676      3.07907        -0.000410      0.007739      0.007613
      5.94469     -3.16731      9.02337        -0.006658      0.007305      0.002515
      1.53204      7.62143     -1.49256         0.000249     -0.001628     -0.006602
      3.08275      9.08515     -3.04438         0.006802     -0.001290      0.000855
      6.09335      9.00822     -3.11520         0.002457     -0.000374      0.000919
      1.55172      4.39523      1.50826        -0.001650      0.003060      0.002262
      3.02105      6.04314     -0.04016         0.001902     -0.001531     -0.000929
      4.60251      7.59532     -1.50349         0.006053     -0.003907     -0.002114
      7.55083      7.56905     -1.55489         0.001507     -0.001702      0.000648
      1.50954      1.49766      4.47040        -0.000061     -0.002817     -0.001181
      3.08858      2.95528      2.97896        -0.000100      0.000301     -0.002907
      4.51626      4.56883      1.45801        -0.007969      0.003598     -0.008061
      6.07046      6.06223     -0.01992         0.001026     -0.001822     -0.002684
      1.45876     -1.48208      7.36874         0.002311      0.003694      0.006897
      2.99558      0.02437      6.02365         0.000197     -0.001384      0.000119
      4.50526      1.49696      4.55520        -0.006039     -0.003407     -0.003111
      7.57304      4.61417      1.43313         0.001798      0.006697      0.008057
      4.47475     -1.51210      7.51687        -0.000456      0.001159     -0.000355
      6.00164      0.01771      5.98962         0.007737      0.003133     -0.011919
      7.58484      1.42887      4.50898         0.005525      0.026214     -0.000503
      9.10271      2.89267      2.98770         0.000596     -0.005747      0.001199
     -4.51199      4.59982      4.53107        -0.011328      0.003218      0.000825
     -2.90409      5.97966      3.05012        -0.001417      0.011692     -0.005105
      5.80528      0.06679      8.95606         0.002456      0.003266     -0.006005
      7.51079      1.53670      7.50830         0.005918      0.000560     -0.003369
     -2.97038      3.00000      6.01917         0.008521      0.000962      0.004486
      1.66632      7.65561      1.48758         0.005803     -0.001812      0.001623
      3.04808      9.08790     -0.03784         0.006388     -0.002198      0.003136
      6.04458      8.98557      0.04144         0.004186      0.000566      0.001773
      3.05858      6.05409      2.94033        -0.000652     -0.000562      0.004634
      4.55806      7.55755      1.48755         0.003537     -0.000723      0.000538
      7.69507      7.40306      1.60045         0.002676      0.000655      0.002726
      1.50118      1.43073      7.60195         0.001362      0.001512     -0.000482
      3.04888      2.96335      6.09314         0.000358      0.001553     -0.003136
      4.48839      4.61102      4.54902         0.017508      0.002861      0.004894
      5.99490      6.09163      2.98295        -0.005955     -0.004404     -0.004387
      7.92298      4.92494      4.18687        -0.076949     -0.087900      0.068021
      2.93779     -0.05572      9.11225         0.007548      0.006818     -0.002775
      4.47682      1.51505      7.51557         0.006756      0.005347     -0.006122
      6.04217      3.05796      5.98573        -0.000530     -0.004230     -0.006418
      1.44498     -1.44123     13.60232        -0.001694     -0.003375      0.005892
      2.84106     -0.08786     11.99630        -0.004012     -0.002921     -0.012009
      4.37949      1.55482     10.50977         0.006683      0.007009     -0.004537
      5.96181      3.08575      8.94836         0.002387      0.005885     -0.000698
      7.52940      4.58041      7.46295        -0.002784     -0.004778     -0.003947
     -3.08084      6.02432      6.07468         0.001304     -0.002947     -0.003129
      1.51400     10.61425      1.48865         0.005292      0.001233      0.009178
      4.48544     10.43429      1.56936         0.004712     -0.002590      0.003238
     -1.60945      4.51487      7.64781         0.005316     -0.004133      0.001336
     -0.09572      5.80126      6.09664         0.003103     -0.002674     -0.001525
      1.66337      7.60519      4.47325         0.000219      0.001987     -0.001358
      6.07297      9.02926      3.02478         0.006783     -0.007193      0.004251
     -0.02686      2.92687      9.04537         0.001285     -0.000428      0.003328
      1.51145      4.54269      7.60390         0.003481     -0.000508     -0.002179
      3.15487      6.02300      5.98846         0.003135      0.001367     -0.006890
      4.55164      7.59338      4.49800         0.001750      0.002668     -0.000453
     -0.01976      0.04380     12.08156         0.009892     -0.021173     -0.009062
      1.45374      1.55860     10.58003         0.005761      0.006332     -0.002389
      2.95717      3.01630      9.03761         0.002624      0.006651     -0.004454
      4.54057      4.55739      7.50918        -0.000803      0.004649      0.000658
      6.07039      6.08776      5.96699        -0.008441      0.017461      0.014611
      9.02728      3.04242      5.92862         0.027015     -0.010726      0.020611
     -1.46133      7.65612      4.66574         0.001584      0.000568      0.000688
 -----------------------------------------------------------------------------------
    total drift:                                0.000536      0.005118      0.001807


--------------------------------------------------------------------------------------------------------



  FREE ENERGIE OF THE ION-ELECTRON SYSTEM (eV)
  ---------------------------------------------------
  free  energy   TOTEN  =     -1096.75421739 eV

  energy  without entropy=    -1096.70435046  energy(sigma->0) =    -1096.73759508
 


--------------------------------------------------------------------------------------------------------


    POTLOK:  cpu time      0.2415: real time      0.1297


--------------------------------------------------------------------------------------------------------




--------------------------------------------------------------------------------------------------------


     LOOP+:  cpu time   3898.7196: real time   3896.6800
    4ORBIT:  cpu time      0.0000: real time      0.0000



 total charge

# of ion       s       p       d       tot
------------------------------------------
    1        0.422   6.330   4.197  10.950
    2        0.414   6.311   4.191  10.915
    3        0.416   6.304   4.214  10.934
    4        0.423   6.314   4.227  10.964
    5        0.361   6.292   2.114   8.767
    6        0.352   6.270   2.100   8.722
    7        0.362   6.292   2.128   8.782
    8        0.357   6.275   2.116   8.748
    9        0.356   6.282   2.100   8.738
   10        0.355   6.277   2.095   8.727
   11        0.344   6.252   2.090   8.686
   12        0.353   6.268   2.102   8.723
   13        0.365   6.299   2.120   8.785
   14        0.360   6.280   2.128   8.768
   15        0.362   6.300   2.157   8.818
   16        0.359   6.274   2.152   8.785
   17        0.359   6.242   3.067   9.668
   18        0.353   6.232   3.059   9.643
   19        0.356   6.228   3.076   9.660
   20        0.356   6.236   3.053   9.645
   21        0.355   6.236   3.054   9.645
   22        0.353   6.233   3.056   9.643
   23        0.352   6.219   3.082   9.653
   24        0.352   6.225   3.056   9.633
   25        0.355   6.236   3.045   9.635
   26        0.352   6.232   3.048   9.631
   27        0.358   6.223   3.091   9.672
   28        0.350   6.218   3.057   9.626
   29        0.356   6.208   3.106   9.669
   30        0.354   6.227   3.063   9.644
   31        0.357   6.236   3.066   9.660
   32        0.352   6.220   3.056   9.628
   33        0.357   6.231   3.080   9.668
   34        0.359   6.239   3.074   9.673
   35        0.361   6.236   3.085   9.682
   36        0.350   6.228   3.032   9.610
   37        0.352   6.226   3.055   9.633
   38        0.353   6.233   3.043   9.629
   39        0.358   6.245   3.047   9.650
   40        0.357   6.239   3.063   9.660
   41        0.355   6.224   3.080   9.659
   42        0.357   6.231   3.073   9.660
   43        0.361   6.237   3.096   9.695
   44        0.356   6.241   3.048   9.645
   45        0.359   6.238   3.079   9.677
   46        0.358   6.232   3.079   9.668
   47        0.353   6.235   3.041   9.630
   48        0.355   6.240   3.048   9.644
   49        0.360   6.236   3.075   9.671
   50        0.350   6.231   3.033   9.613
   51        0.355   6.220   3.089   9.664
   52        0.360   6.237   3.066   9.663
   53        0.356   6.229   3.082   9.667
   54        0.356   6.229   3.074   9.659
   55        0.352   6.225   3.058   9.636
   56        0.352   6.224   3.070   9.646
   57        0.351   6.224   3.060   9.635
   58        0.353   6.231   3.036   9.620
   59        0.351   6.226   3.047   9.625
   60        0.351   6.221   3.049   9.621
   61        0.349   6.219   3.059   9.627
   62        0.355   6.236   3.051   9.642
   63        0.355   6.220   3.094   9.669
   64        0.352   6.227   3.070   9.649
   65        0.355   6.234   3.075   9.664
   66        0.357   6.234   3.074   9.666
   67        0.354   6.229   3.049   9.632
   68        0.349   6.229   3.036   9.614
   69        0.353   6.230   3.056   9.640
   70        0.357   6.233   3.076   9.666
   71        0.353   6.233   3.038   9.624
   72        0.357   6.225   3.091   9.673
   73        0.353   6.228   3.061   9.642
   74        0.357   6.237   3.053   9.647
   75        0.371   6.240   3.089   9.701
   76        0.358   6.232   3.085   9.675
   77        0.354   6.229   3.069   9.652
   78        0.357   6.220   3.025   9.602
   79        0.350   6.227   3.035   9.611
   80        0.354   6.229   3.057   9.640
   81        0.357   6.228   3.095   9.679
   82        0.364   6.231   3.058   9.653
   83        0.358   6.231   3.044   9.633
   84        0.364   6.221   3.072   9.658
   85        0.354   6.216   3.089   9.659
   86        0.349   6.233   3.038   9.620
   87        0.348   6.232   3.029   9.609
   88        0.356   6.222   3.065   9.643
   89        0.355   6.234   3.086   9.675
   90        0.355   6.229   3.065   9.648
   91        0.355   6.228   3.071   9.654
   92        0.358   6.240   3.065   9.664
   93        0.338   6.211   3.005   9.553
   94        0.355   6.231   3.056   9.641
   95        0.352   6.229   3.052   9.633
   96        0.360   6.223   3.109   9.693
   97        0.370   6.240   3.069   9.680
   98        0.336   6.194   3.021   9.550
   99        0.353   6.215   3.015   9.584
  100        0.360   6.232   3.095   9.688
  101        0.344   6.225   3.011   9.581
  102        0.371   6.235   3.116   9.721
  103        0.330   6.204   2.987   9.522
  104        0.352   6.223   3.059   9.633
  105        0.354   6.229   3.074   9.657
  106        0.352   6.231   3.077   9.660
  107        0.352   6.222   3.072   9.646
  108        0.352   6.227   3.073   9.652
  109        0.355   6.231   3.059   9.645
  110        0.353   6.222   3.060   9.634
  111        0.355   6.208   3.074   9.637
  112        0.341   6.216   3.000   9.558
  113        0.355   6.238   3.060   9.653
  114        0.353   6.222   3.077   9.652
  115        0.351   6.224   3.047   9.622
  116        0.356   6.219   3.104   9.679
  117        0.357   6.239   3.059   9.655
  118        0.365   6.239   3.050   9.654
  119        0.371   6.236   3.097   9.704
  120        0.356   6.232   3.074   9.662
  121        0.356   6.234   3.071   9.661
  122        0.351   6.234   3.027   9.613
  123        2.438   6.258   3.411  12.107
  124        2.260   5.963   1.923  10.145
--------------------------------------------------
tot         48.255 773.082 372.1341193.471
 

 total amount of memory used by VASP MPI-rank0  7324551. kBytes
=======================================================================

   base      :      30000. kBytes
   nonl-proj :    1299768. kBytes
   fftplans  :      67629. kBytes
   grid      :     189621. kBytes
   one-center:       1928. kBytes
   wavefun   :    5735605. kBytes
 
  
  
 General timing and accounting informations for this job:
 ========================================================
  
                  Total CPU time used (sec):     4021.822
                            User time (sec):     3336.492
                          System time (sec):      685.329
                         Elapsed time (sec):     4019.811
  
                   Maximum memory used (kb):     9615792.
                   Average memory used (kb):          N/A
  
                          Minor page faults:     14848648
                          Major page faults:           12
                 Voluntary context switches:       725188
