 vasp.6.4.2 20Jul23 (build Sep 20 2024 16:56:05) complex                         
 executed on              LinuxNV date 2024.12.10  16:20:37
 running    4 mpi-ranks, with    8 threads/rank, on    1 nodes
 distrk:  each k-point on    4 cores,    1 groups
 distr:  one band on NCORE=   1 cores,    4 groups
 OpenACC runtime initialized ...    4 GPUs detected


--------------------------------------------------------------------------------------------------------


 INCAR:
   ENCUT = 520.000000
   POTIM = 0.200000
   SIGMA = 0.200000
   EDIFF = 1.00e-06
   EDIFFG = -1.00e-02
   ALGO = Normal
   GGA = PE
   PREC = Accurate
   IBRION = 2
   ISIF = 2
   ISMEAR = 1
   LORBIT = 11
   NELM = 100
   NSW = -1
   LCHARG = .TRUE.
   LWAVE = .FALSE.
   LREAL = .FALSE.
   NSIM = 64

 POTCAR:    PAW_PBE V_pv 07Sep2000                
 POTCAR:    PAW_PBE Cr_pv 02Aug2007               
 POTCAR:    PAW_PBE Ti_pv 07Sep2000               
 POTCAR:    PAW_PBE V_pv 07Sep2000                
   SHA256 =  1175d3c8cb4ffd1d150a520fa74fae5c3ec72c0849b5615a94a5372dd2cf07f7 V_pv/POTCAR           
   COPYR  = (c) Copyright 07Sep2000 Georg Kresse                                                    
   COPYR  = This file is part of the software VASP. Any use, copying, and all other rights are regul
   COPYR  = If you do not have a valid VASP license, you may not use, copy or distribute this file. 
   VRHFIN =V: p6 d4 s1                                                                              
   LEXCH  = PE                                                                                      
   EATOM  =  1321.6206 eV,   97.1364 Ry                                                             
                                                                                                    
   TITEL  = PAW_PBE V_pv 07Sep2000                                                                  
   LULTRA =        F    use ultrasoft PP ?                                                          
   IUNSCR =        1    unscreen: 0-lin 1-nonlin 2-no                                               
   RPACOR =    1.700    partial core radius                                                         
   POMASS =   50.941; ZVAL   =   11.000    mass and valenz                                          
   RCORE  =    2.300    outmost cutoff radius                                                       
   RWIGS  =    2.300; RWIGS  =    1.217    wigner-seitz radius (au A)                               
   ENMAX  =  263.673; ENMIN  =  197.755 eV                                                          
   RCLOC  =    1.779    cutoff for local pot                                                        
   LCOR   =        T    correct aug charges                                                         
   LPAW   =        T    paw PP                                                                      
   EAUG   =  598.473                                                                                
   DEXC   =    0.000                                                                                
   RMAX   =    2.359    core radius for proj-oper                                                   
   RAUG   =    1.300    factor for augmentation sphere                                              
   RDEP   =    2.430    radius for radial grids                                                     
   RDEPT  =    1.700    core radius for aug-charge                                                  
                                                                                                    
   Atomic configuration                                                                             
    8 entries                                                                                       
     n  l   j            E        occ.                                                              
     1  0  0.50     -5360.7193   2.0000                                                             
     2  0  0.50      -598.4546   2.0000                                                             
     2  1  1.50      -499.0155   6.0000                                                             
     3  0  0.50       -66.5711   2.0000                                                             
     3  1  1.50       -40.5282   6.0000                                                             
     3  2  2.50        -2.4291   4.0000                                                             
     4  0  0.50        -3.8743   1.0000                                                             
     4  3  2.50        -1.3606   0.0000                                                             
   Description                                                                                      
     l       E           TYP  RCUT    TYP  RCUT                                                     
     1    -40.5282431     23  2.000                                                                 
     1      5.4423304     23  2.000                                                                 
     2     -2.4290905     23  2.300                                                                 
     2     -1.0472488     23  2.300                                                                 
     0     -3.8742754     23  2.300                                                                 
     0     27.2116520     23  2.300                                                                 
  local pseudopotential read in
  partial core-charges read in
  partial kinetic energy density read in
  atomic valenz-charges read in
  non local Contribution for L=            1  read in
    real space projection operators read in
  non local Contribution for L=            1  read in
    real space projection operators read in
  non local Contribution for L=            2  read in
    real space projection operators read in
  non local Contribution for L=            2  read in
    real space projection operators read in
  non local Contribution for L=            0  read in
    real space projection operators read in
  non local Contribution for L=            0  read in
    real space projection operators read in
    PAW grid and wavefunctions read in
 
   number of l-projection  operators is LMAX  =            6
   number of lm-projection operators is LMMAX =           18
 
 POTCAR:    PAW_PBE Cr_pv 02Aug2007               
   SHA256 =  c9a7df34d3cdbacf1090e328ef39c0b420964e11c23f63548d1ac9dd218cdba0 Cr_pv/POTCAR          
   COPYR  = (c) Copyright 02Aug2007 Georg Kresse                                                    
   COPYR  = This file is part of the software VASP. Any use, copying, and all other rights are regul
   COPYR  = If you do not have a valid VASP license, you may not use, copy or distribute this file. 
   VRHFIN =Cr : p6d5s1                                                                              
   LEXCH  = PE                                                                                      
   EATOM  =  1647.9177 eV,  121.1185 Ry                                                             
                                                                                                    
   TITEL  = PAW_PBE Cr_pv 02Aug2007                                                                 
   LULTRA =        F    use ultrasoft PP ?                                                          
   IUNSCR =        1    unscreen: 0-lin 1-nonlin 2-no                                               
   RPACOR =    2.080    partial core radius                                                         
   POMASS =   51.996; ZVAL   =   12.000    mass and valenz                                          
   RCORE  =    2.300    outmost cutoff radius                                                       
   RWIGS  =    2.500; RWIGS  =    1.323    wigner-seitz radius (au A)                               
   ENMAX  =  265.681; ENMIN  =  199.261 eV                                                          
   ICORE  =        3    local potential                                                             
   LCOR   =        T    correct aug charges                                                         
   LPAW   =        T    paw PP                                                                      
   EAUG   =  519.424                                                                                
   DEXC   =    0.000                                                                                
   RMAX   =    2.356    core radius for proj-oper                                                   
   RAUG   =    1.300    factor for augmentation sphere                                              
   RDEP   =    2.447    radius for radial grids                                                     
   RDEPT  =    1.882    core radius for aug-charge                                                  
                                                                                                    
   Atomic configuration                                                                             
    8 entries                                                                                       
     n  l   j            E        occ.                                                              
     1  0  0.50     -5880.4963   2.0000                                                             
     2  0  0.50      -667.0865   2.0000                                                             
     2  1  1.50      -560.6250   6.0000                                                             
     3  0  0.50       -73.9860   2.0000                                                             
     3  1  1.50       -45.4378   6.0000                                                             
     3  2  2.50        -2.9137   5.0000                                                             
     4  0  0.50        -4.0071   1.0000                                                             
     4  3  2.50        -1.3606   0.0000                                                             
   Description                                                                                      
     l       E           TYP  RCUT    TYP  RCUT                                                     
     1    -45.4377911     23  2.000                                                                 
     1      1.3605826     23  2.000                                                                 
     2     -2.9136672     23  2.300                                                                 
     2     -4.2742498     23  2.300                                                                 
     0     -4.0071320     23  2.300                                                                 
     0      9.4498803     23  2.300                                                                 
     3      2.7211652     23  2.300                                                                 
  local pseudopotential read in
  partial core-charges read in
  partial kinetic energy density read in
  atomic valenz-charges read in
  non local Contribution for L=            1  read in
    real space projection operators read in
  non local Contribution for L=            1  read in
    real space projection operators read in
  non local Contribution for L=            2  read in
    real space projection operators read in
  non local Contribution for L=            2  read in
    real space projection operators read in
  non local Contribution for L=            0  read in
    real space projection operators read in
  non local Contribution for L=            0  read in
    real space projection operators read in
    PAW grid and wavefunctions read in
 
   number of l-projection  operators is LMAX  =            6
   number of lm-projection operators is LMMAX =           18
 
 POTCAR:    PAW_PBE Ti_pv 07Sep2000               
   SHA256 =  f757a1b2c6d082f4c628fa3d987464a8763bf92e53844ac0500b0e2ddc9ce5c0 Ti_pv/POTCAR          
   COPYR  = (c) Copyright 07Sep2000 Georg Kresse                                                    
   COPYR  = This file is part of the software VASP. Any use, copying, and all other rights are regul
   COPYR  = If you do not have a valid VASP license, you may not use, copy or distribute this file. 
   VRHFIN =Ti: d3 s1                                                                                
   LEXCH  = PE                                                                                      
   EATOM  =  1042.5995 eV,   76.6289 Ry                                                             
                                                                                                    
   TITEL  = PAW_PBE Ti_pv 07Sep2000                                                                 
   LULTRA =        F    use ultrasoft PP ?                                                          
   IUNSCR =        1    unscreen: 0-lin 1-nonlin 2-no                                               
   RPACOR =    2.200    partial core radius                                                         
   POMASS =   47.880; ZVAL   =   10.000    mass and valenz                                          
   RCORE  =    2.500    outmost cutoff radius                                                       
   RWIGS  =    2.500; RWIGS  =    1.323    wigner-seitz radius (au A)                               
   ENMAX  =  222.335; ENMIN  =  166.751 eV                                                          
   RCLOC  =    1.701    cutoff for local pot                                                        
   LCOR   =        T    correct aug charges                                                         
   LPAW   =        T    paw PP                                                                      
   EAUG   =  482.848                                                                                
   DEXC   =    0.000                                                                                
   RMAX   =    2.564    core radius for proj-oper                                                   
   RAUG   =    1.300    factor for augmentation sphere                                              
   RDEP   =    2.538    radius for radial grids                                                     
   RDEPT  =    1.952    core radius for aug-charge                                                  
                                                                                                    
   Atomic configuration                                                                             
    8 entries                                                                                       
     n  l   j            E        occ.                                                              
     1  0  0.50     -4865.3608   2.0000                                                             
     2  0  0.50      -533.1368   2.0000                                                             
     2  1  1.50      -440.5031   6.0000                                                             
     3  0  0.50       -59.3186   2.0000                                                             
     3  1  1.50       -35.7012   6.0000                                                             
     3  2  2.50        -1.9157   3.0000                                                             
     4  0  0.50        -3.7291   1.0000                                                             
     4  3  2.50        -1.3606   0.0000                                                             
   Description                                                                                      
     l       E           TYP  RCUT    TYP  RCUT                                                     
     1    -35.7012140     23  2.300                                                                 
     1     -1.3605826     23  2.300                                                                 
     2     -1.9156996     23  2.500                                                                 
     2     -0.4063033     23  2.500                                                                 
     0     -3.7290856     23  2.500                                                                 
     0     20.4087390     23  2.500                                                                 
  local pseudopotential read in
  partial core-charges read in
  partial kinetic energy density read in
  atomic valenz-charges read in
  non local Contribution for L=            1  read in
    real space projection operators read in
  non local Contribution for L=            1  read in
    real space projection operators read in
  non local Contribution for L=            2  read in
    real space projection operators read in
  non local Contribution for L=            2  read in
    real space projection operators read in
  non local Contribution for L=            0  read in
    real space projection operators read in
  non local Contribution for L=            0  read in
    real space projection operators read in
    PAW grid and wavefunctions read in
 
   number of l-projection  operators is LMAX  =            6
   number of lm-projection operators is LMMAX =           18
 
 -----------------------------------------------------------------------------
|                                                                             |
|               ----> ADVICE to this user running VASP <----                  |
|                                                                             |
|     You have a (more or less) 'large supercell' and for larger cells it     |
|     might be more efficient to use real-space projection operators.         |
|     Therefore, try LREAL= Auto in the INCAR file.                           |
|     Mind: For very accurate calculation, you might also keep the            |
|     reciprocal projection scheme (i.e. LREAL=.FALSE.).                      |
|                                                                             |
 -----------------------------------------------------------------------------

  PAW_PBE V_pv 07Sep2000                :
 energy of atom  1       EATOM=-1321.6206
 kinetic energy error for atom=    0.0054 (will be added to EATOM!!)
  PAW_PBE Cr_pv 02Aug2007               :
 energy of atom  2       EATOM=-1647.9177
 kinetic energy error for atom=    0.0057 (will be added to EATOM!!)
  PAW_PBE Ti_pv 07Sep2000               :
 energy of atom  3       EATOM=-1042.5995
 kinetic energy error for atom=    0.0019 (will be added to EATOM!!)
 
 
 POSCAR: V  Cr Ti
  positions in cartesian coordinates
  No initial velocities read in
 exchange correlation table for  LEXCH =        8
   RHO(1)=    0.500       N(1)  =     2000
   RHO(2)=  100.500       N(2)  =     4000
 


--------------------------------------------------------------------------------------------------------


 ion  position               nearest neighbor table
   1  0.007  0.996  0.004-   2 2.53 114 2.60   5 2.61  22 2.63  95 2.63  28 2.64 115 2.67  23 2.85
                            21 2.90 118 3.01
   2  0.993  0.003  0.196-  24 2.39  96 2.52 110 2.53   6 2.53   1 2.53   3 2.58  29 2.60  95 2.89
                             7 2.91
   3  0.003  0.997  0.396-   2 2.58   4 2.61   7 2.62  19 2.63 111 2.63  97 2.64  30 2.64  24 2.84

   4  0.004  0.001  0.598-  25 2.55   8 2.56  98 2.58  31 2.58 112 2.58  20 2.59   3 2.61   5 2.69
                           116 3.00
   5  1.000  0.004  0.805- 118 2.49 116 2.53  27 2.59 113 2.61   1 2.61  26 2.62  21 2.63   4 2.69
                            98 2.88 114 2.91 115 2.92
   6  0.005  0.202  0.199-   2 2.53 115 2.54   9 2.55  28 2.56  34 2.59  95 2.59  99 2.60   7 2.61
                           119 2.93
   7  0.004  0.200  0.399- 100 2.58  35 2.59  29 2.60   6 2.61  96 2.61  10 2.61   3 2.62   8 2.62
                             2 2.91
   8  0.005  0.199  0.601-  30 2.49   4 2.56  97 2.57  36 2.59  11 2.61 116 2.61   7 2.62 122 2.67

   9  0.001  0.396  0.197- 119 2.53  14 2.54 117 2.54   6 2.55  33 2.58  10 2.62  39 2.63 102 2.64
                           101 2.86 115 2.95
  10  0.005  0.402  0.402-  34 2.56  15 2.57  40 2.58  11 2.60 103 2.60   7 2.61   9 2.62  99 2.64

  11  0.003  0.399  0.600-  35 2.57 100 2.59  10 2.60  41 2.61   8 2.61 104 2.62  16 2.64  12 2.69
                           122 3.01
  12  0.009  0.400  0.809-  36 2.53  37 2.54 117 2.56 116 2.57  17 2.63 124 2.66  11 2.69 122 2.70
                            32 2.86 123 2.97
  13  0.004  0.610  0.007-  43 2.51  37 2.62 124 2.64  14 2.64  17 2.65 105 2.68 117 2.71  18 2.87

  14  0.000  0.593  0.203-  18 2.48 101 2.53   9 2.54  15 2.56  44 2.58  38 2.59  13 2.64 106 2.71
                           117 2.96
  15  0.003  0.600  0.403-  16 2.55  14 2.56  19 2.56  10 2.57  45 2.58  39 2.59 102 2.61 107 2.64

  16  0.004  0.603  0.601-  15 2.55  46 2.57 103 2.58  40 2.58  20 2.59  17 2.60 108 2.62  11 2.64

  17  0.002  0.596  0.798-  41 2.54 104 2.57 109 2.58  42 2.58  16 2.60  12 2.63  21 2.64  13 2.65
                           124 2.93
  18  0.951  0.756  0.182-  24 2.27 105 2.33 111 2.43  14 2.48  19 2.57 106 2.60 110 2.83  13 2.87

  19  0.995  0.794  0.403-  20 2.52  15 2.56 112 2.57  18 2.57  44 2.63   3 2.63  25 2.64 106 2.65
                           107 2.90
  20  0.003  0.803  0.603-  19 2.52  26 2.55 113 2.58   4 2.59  16 2.59  45 2.60 107 2.61  21 2.64

  21  0.000  0.801  0.805- 108 2.57  22 2.61  46 2.61 114 2.62   5 2.63  17 2.64  20 2.64 109 2.76
                            42 2.87   1 2.90
  22  0.208  0.009  0.991-  23 2.35  26 2.41  27 2.53  47 2.55  21 2.61   1 2.63  42 2.64  53 2.66
                            52 2.86
  23  0.229  0.025  0.183-  24 2.26  22 2.35  48 2.45  28 2.47  54 2.56  53 2.65  42 2.82   1 2.85

  24  0.137  0.936  0.274-  23 2.26  18 2.27  43 2.38   2 2.39  49 2.84   3 2.84  44 2.86  29 2.86

  25  0.201  0.002  0.598-  50 2.51   4 2.55  56 2.58  45 2.62  30 2.63  26 2.63  19 2.64  55 2.90

  26  0.199  0.999  0.799-  22 2.41  20 2.55  46 2.61   5 2.62  31 2.63  52 2.63  51 2.63  25 2.63

  27  0.199  0.204  0.002-  22 2.53 115 2.53  28 2.54  32 2.54  31 2.57   5 2.59  58 2.61  52 2.65
                           116 2.91
  28  0.204  0.209  0.201-  23 2.47  33 2.47  27 2.54   6 2.56  59 2.59  29 2.61   1 2.64  53 2.67
                           115 2.94
  29  0.201  0.194  0.395-   2 2.60   7 2.60  28 2.61  54 2.61  60 2.63  30 2.65  34 2.65  24 2.86
                            55 2.90
  30  0.199  0.205  0.602-   8 2.49  55 2.54  35 2.55  61 2.59  25 2.63  31 2.64   3 2.64  29 2.65

  31  0.195  0.201  0.802- 116 2.43  27 2.57   4 2.58  57 2.60  56 2.60  36 2.62  26 2.63  30 2.64

  32  0.195  0.396  0.998- 117 2.50 116 2.50  27 2.54  33 2.60  57 2.60  36 2.63  63 2.64  37 2.65
                            12 2.86 115 2.95
  33  0.201  0.398  0.200-  28 2.47  38 2.56 115 2.57   9 2.58  58 2.58  32 2.60  34 2.60  64 2.62
                           117 2.94
  34  0.202  0.400  0.401-  35 2.56  10 2.56  59 2.57   6 2.59  33 2.60  65 2.60  39 2.60  29 2.65

  35  0.201  0.401  0.598-  30 2.55  34 2.56  60 2.56  11 2.57   7 2.59  40 2.59  66 2.61  36 2.62

  36  0.201  0.404  0.800-  12 2.53  62 2.57  41 2.58  61 2.58   8 2.59  31 2.62  35 2.62  32 2.63
                           116 2.99
  37  0.201  0.603  1.000-  12 2.54  41 2.58  68 2.58  62 2.60  38 2.60  13 2.62  32 2.65  42 2.66
                            43 2.86 117 2.99
  38  0.196  0.591  0.194- 117 2.43  33 2.56  14 2.59  43 2.60  37 2.60  63 2.61  69 2.61  39 2.62

  39  0.202  0.600  0.401-  64 2.57  15 2.59  70 2.59  40 2.60  34 2.60  38 2.62   9 2.63  44 2.64

  40  0.203  0.601  0.601-  65 2.57  71 2.58  10 2.58  16 2.58  35 2.59  39 2.60  41 2.61  45 2.61

  41  0.200  0.602  0.801-  17 2.54  67 2.55  46 2.56  37 2.58  36 2.58  66 2.60  40 2.61  11 2.61

  42  0.191  0.803  0.998-  43 2.56  46 2.57  17 2.58  22 2.64  37 2.66  48 2.70  67 2.72  23 2.82
                            21 2.87
  43  0.207  0.795  0.196-  24 2.38  13 2.51  68 2.53  49 2.54  42 2.56  38 2.60  44 2.62  37 2.86
                            69 2.91
  44  0.196  0.799  0.395-  50 2.55  14 2.58  69 2.60  43 2.62  45 2.63  19 2.63  39 2.64  24 2.86

  45  0.201  0.801  0.600-  15 2.58  70 2.59  51 2.59  20 2.60  40 2.61  25 2.62  44 2.63  46 2.64
                            50 2.89
  46  0.200  0.799  0.802-  41 2.56  16 2.57  42 2.57  47 2.59  21 2.61  26 2.61  71 2.63  45 2.64

  47  0.403  1.000  0.996-  51 2.55  48 2.55  22 2.55  72 2.56  46 2.59  67 2.59  77 2.64  52 2.64

  48  0.412  0.003  0.196-  23 2.45  73 2.47  47 2.55  78 2.59  68 2.62  49 2.65  42 2.70  53 2.72
                            74 2.90  77 2.92
  49  0.393  0.998  0.391-  79 2.50  43 2.54  48 2.65  74 2.65  69 2.67  54 2.67  50 2.69  24 2.84
                           120 3.05
  50  0.390  0.993  0.595-  25 2.51  44 2.55  70 2.56  51 2.58 120 2.63  55 2.64 121 2.68  49 2.69
                            45 2.89
  51  0.401  0.000  0.800-  47 2.55  50 2.58  45 2.59  71 2.60  76 2.61  26 2.63  56 2.63  75 2.68
                           121 3.01
  52  0.402  0.204  0.998-  56 2.53  53 2.54  57 2.59  81 2.60  26 2.63  76 2.64  47 2.64  27 2.65
                            22 2.86  80 2.88
  53  0.410  0.212  0.199-  52 2.54  58 2.55  77 2.56  82 2.59  54 2.62  23 2.65  22 2.66  28 2.67
                            48 2.72  81 2.84
  54  0.409  0.212  0.400-  59 2.54  83 2.56  23 2.56  78 2.59  29 2.61  53 2.62  49 2.67  55 2.68
                            79 2.73
  55  0.389  0.196  0.594-  79 2.50  30 2.54  60 2.59  56 2.64  50 2.64  54 2.68  84 2.68  25 2.90
                            29 2.90
  56  0.394  0.201  0.800-  52 2.53  80 2.57  25 2.58  31 2.60  61 2.61  51 2.63  55 2.64 121 2.67

  57  0.397  0.402  0.999-  62 2.58  58 2.59  61 2.59  52 2.59  86 2.60  31 2.60  32 2.60  80 2.61

  58  0.402  0.405  0.200-  63 2.52  53 2.55  33 2.58  57 2.59  81 2.60  87 2.61  27 2.61  59 2.63
                            86 2.91
  59  0.402  0.406  0.403-  54 2.54  64 2.54  88 2.57  34 2.57  28 2.59  60 2.59  58 2.63  82 2.63

  60  0.398  0.400  0.599-  35 2.56  55 2.59  59 2.59  65 2.60  61 2.61  83 2.61  29 2.63  89 2.69

  61  0.400  0.403  0.801-  84 2.53  85 2.56  36 2.58  66 2.58  57 2.59  30 2.59  60 2.61  56 2.61

  62  0.399  0.601  0.999-  85 2.55  36 2.57  57 2.58  66 2.59  67 2.59  37 2.60  91 2.61  63 2.61

  63  0.400  0.598  0.199-  58 2.52  86 2.55  68 2.59  38 2.61  64 2.61  62 2.61  32 2.64  92 2.64

  64  0.400  0.601  0.401-  59 2.54  39 2.57  69 2.58  87 2.58  65 2.58  63 2.61  33 2.62  93 2.63

  65  0.401  0.602  0.601-  40 2.57  64 2.58  88 2.60  66 2.60  34 2.60  60 2.60  70 2.61  94 2.61

  66  0.400  0.602  0.800-  71 2.57  90 2.58  61 2.58  62 2.59  65 2.60  41 2.60  35 2.61  89 2.64

  67  0.399  0.799  0.996-  41 2.55  71 2.58  62 2.59  47 2.59  68 2.61  90 2.62  73 2.63  42 2.72

  68  0.403  0.799  0.198-  74 2.51  43 2.53  91 2.55  37 2.58  63 2.59  67 2.61  69 2.61  48 2.62

  69  0.394  0.795  0.395-  64 2.58  70 2.60  44 2.60  68 2.61  38 2.61  92 2.63 120 2.65  49 2.67
                            43 2.91
  70  0.401  0.802  0.599-  50 2.56  45 2.59  39 2.59  69 2.60  71 2.60  65 2.61  93 2.61  75 2.68
                           120 2.98
  71  0.401  0.800  0.799-  66 2.57  40 2.58  72 2.58  67 2.58  94 2.60  51 2.60  70 2.60  46 2.63

  72  0.600  0.998  0.998-  75 2.52  47 2.56  76 2.57  73 2.57  71 2.58  90 2.58  99 2.62  95 2.65
                           119 2.99
  73  0.602  0.001  0.197-  48 2.47  96 2.55  74 2.57  72 2.57  91 2.61  77 2.61 100 2.62  67 2.63

  74  0.595  0.994  0.390-  68 2.51  73 2.57  92 2.58  97 2.63  78 2.64  49 2.65 120 2.66 122 2.67
                            48 2.90  91 2.92
  75  0.610  0.001  0.808-  72 2.52  94 2.54 119 2.57 118 2.58  70 2.68  51 2.68 120 2.70 121 2.72
                            95 2.89 123 3.00
  76  0.604  0.198  0.001-  77 2.56  72 2.57 119 2.59 102 2.60  80 2.60  51 2.61  52 2.64 121 2.66

  77  0.604  0.203  0.200-  53 2.56  76 2.56  78 2.59  81 2.59  73 2.61  99 2.61 103 2.62  47 2.64
                           102 2.90  48 2.92
  78  0.605  0.204  0.399-  79 2.51 104 2.58  48 2.59  77 2.59  54 2.59 100 2.62  82 2.64  74 2.64
                           122 2.98
  79  0.578  0.200  0.580-  49 2.50  55 2.50  78 2.51  83 2.51 120 2.72 121 2.72  54 2.73 122 2.80
                           124 2.84
  80  0.595  0.395  0.997-  56 2.57 106 2.57  81 2.59  76 2.60  57 2.61  84 2.64  85 2.67 101 2.74
                           105 2.87  52 2.88 121 2.98
  81  0.601  0.402  0.201-  82 2.58  86 2.58  80 2.59  77 2.59  58 2.60  52 2.60 102 2.61 107 2.61
                           106 2.83  53 2.84
  82  0.606  0.409  0.403-  87 2.58 108 2.58  81 2.58  53 2.59  83 2.60 103 2.63  59 2.63  78 2.64
                           107 2.90
  83  0.603  0.407  0.602-  79 2.51  88 2.55  54 2.56  84 2.59  82 2.60  60 2.61 104 2.64 109 2.81
                           124 3.01
  84  0.594  0.406  0.798- 105 2.42  61 2.53  89 2.54  83 2.59  80 2.64 121 2.67  55 2.68 124 2.71

  85  0.595  0.600  0.999-  62 2.55  61 2.56 105 2.58 111 2.58  90 2.58  89 2.61  86 2.62  80 2.67

  86  0.597  0.599  0.201-  63 2.55 106 2.56  81 2.58  87 2.59  57 2.60  91 2.60  85 2.62 112 2.64
                            58 2.91
  87  0.601  0.605  0.403-  92 2.56  82 2.58  64 2.58  86 2.59  88 2.59 113 2.59  58 2.61 107 2.61

  88  0.601  0.602  0.601-  83 2.55  59 2.57  93 2.57  87 2.59  65 2.60  89 2.60 108 2.62 114 2.63

  89  0.606  0.607  0.804-  94 2.54  84 2.54 110 2.57  88 2.60  85 2.61  66 2.64 109 2.66  60 2.69

  90  0.601  0.800  0.998-  94 2.54  72 2.58  85 2.58  66 2.58  96 2.60  67 2.62  91 2.62 110 2.67

  91  0.600  0.800  0.199- 111 2.45  68 2.55  86 2.60  62 2.61  73 2.61  90 2.62  92 2.64  97 2.65
                            74 2.92
  92  0.602  0.803  0.404-  87 2.56 112 2.58  74 2.58  93 2.60  69 2.63  91 2.64  63 2.64  98 2.67
                           120 2.99
  93  0.603  0.802  0.604-  88 2.57  94 2.59  92 2.60  70 2.61 113 2.61 118 2.63  64 2.63 120 2.67
                           114 2.89
  94  0.602  0.800  0.802-  89 2.54  75 2.54  90 2.54 114 2.55  93 2.59  71 2.60  65 2.61  95 2.61
                           118 3.00
  95  0.805  0.003  0.999- 118 2.50 119 2.53   6 2.59  94 2.61  96 2.62   1 2.63  72 2.65 110 2.66
                            75 2.89   2 2.89 114 2.90 115 2.93
  96  0.799  0.001  0.199-   2 2.52  73 2.55 111 2.59  99 2.60  90 2.60   7 2.61  95 2.62  97 2.63

  97  0.805  0.004  0.404-   8 2.57 112 2.59 100 2.60  74 2.63  96 2.63   3 2.64  91 2.65  98 2.67
                           122 2.96
  98  0.811  0.003  0.610- 113 2.52 116 2.55   4 2.58 118 2.59  97 2.67  92 2.67 122 2.67 120 2.74
                             5 2.88 123 2.98
  99  0.804  0.201  0.196- 119 2.46 102 2.54  96 2.60   6 2.60 100 2.61  77 2.61  72 2.62  10 2.64

 100  0.805  0.202  0.397-   7 2.58 103 2.58  11 2.59  97 2.60  99 2.61  73 2.62  78 2.62 122 2.65

 101  0.810  0.396  0.008- 119 2.52  14 2.53 117 2.56 102 2.57 105 2.62 121 2.68 124 2.72  80 2.74
                             9 2.86 123 2.95
 102  0.801  0.398  0.204-  99 2.54 106 2.55 103 2.55 101 2.57  76 2.60  81 2.61  15 2.61   9 2.64
                            77 2.90 119 3.00
 103  0.806  0.403  0.403- 104 2.49 102 2.55 100 2.58  16 2.58 107 2.60  10 2.60  77 2.62  82 2.63

 104  0.803  0.407  0.594- 103 2.49 108 2.55  17 2.57  78 2.58  11 2.62  83 2.64 124 2.68 122 2.69

 105  0.784  0.582  0.990-  18 2.33  84 2.42  85 2.58 101 2.62 109 2.64  13 2.68 106 2.68 110 2.70
                            80 2.87 124 2.88
 106  0.790  0.590  0.201- 107 2.55 102 2.55  86 2.56  80 2.57  18 2.60  19 2.65 105 2.68  14 2.71
                           111 2.73  81 2.83
 107  0.801  0.601  0.404- 106 2.55 108 2.56 103 2.60  20 2.61  81 2.61  87 2.61 112 2.63  15 2.64
                            19 2.90  82 2.90
 108  0.804  0.606  0.603- 104 2.55 107 2.56  21 2.57 113 2.58  82 2.58  16 2.62  88 2.62 109 2.63

 109  0.820  0.624  0.816-  17 2.58 114 2.59 108 2.63 105 2.64  89 2.66 124 2.69  21 2.76 110 2.80
                            83 2.81
 110  0.808  0.800  0.002-   2 2.53  89 2.57 114 2.65  95 2.66  90 2.67 111 2.69 105 2.70 109 2.80
                            18 2.83
 111  0.789  0.800  0.201-  18 2.43  91 2.45 112 2.57  85 2.58  96 2.59   3 2.63 110 2.69 106 2.73

 112  0.800  0.803  0.404- 113 2.55 111 2.57  19 2.57  92 2.58   4 2.58  97 2.59 107 2.63  86 2.64

 113  0.803  0.803  0.601-  98 2.52 112 2.55 114 2.57 108 2.58  20 2.58  87 2.59   5 2.61  93 2.61
                           118 2.99
 114  0.800  0.811  0.800- 118 2.39  94 2.55 113 2.57 109 2.59   1 2.60  21 2.62  88 2.63 110 2.65
                            93 2.89  95 2.90   5 2.91
 115  0.003  0.199  0.003-  27 2.53   6 2.54 118 2.55  33 2.57 119 2.59 117 2.61 116 2.61   1 2.67
                           123 2.78   5 2.92  95 2.93  28 2.94  32 2.95   9 2.95
 116  0.008  0.200  0.804-  31 2.43  32 2.50 123 2.52   5 2.53  98 2.55  12 2.57   8 2.61 115 2.61
                            27 2.91  36 2.99   4 3.00 118 3.03 117 3.04 122 3.12
 117  0.009  0.403  0.007-  38 2.43  32 2.50 123 2.51   9 2.54  12 2.56 101 2.56 115 2.61  13 2.71
                            33 2.94  14 2.96  37 2.99 116 3.04 119 3.04 124 3.13
 118  0.808  1.000  0.807- 114 2.39   5 2.49  95 2.50 123 2.52 115 2.55  75 2.58  98 2.59  93 2.63
                           113 2.99  94 3.00   1 3.01 119 3.01 116 3.03
 119  0.805  0.200  0.006-  99 2.46 101 2.52 123 2.52   9 2.53  95 2.53  75 2.57  76 2.59 115 2.59
                             6 2.93  72 2.99 102 3.00 118 3.01 117 3.04 121 3.15
 120  0.596  0.003  0.597-  50 2.63  69 2.65  74 2.66  93 2.67  75 2.70  79 2.72  98 2.74 123 2.80
                           121 2.96  70 2.98  92 2.99 122 2.99  49 3.05
 121  0.599  0.202  0.796-  76 2.66  84 2.67  56 2.67  50 2.68 101 2.68  79 2.72  75 2.72 123 2.79
                           120 2.96  80 2.98  51 3.01 124 3.04 119 3.15
 122  0.799  0.200  0.598- 100 2.65   8 2.67  98 2.67  74 2.67 104 2.69  12 2.70 123 2.78  79 2.80
                            97 2.96  78 2.98 120 2.99  11 3.01 124 3.04 116 3.12
 123  0.820  0.201  0.818- 117 2.51 119 2.52 116 2.52 118 2.52 115 2.78 122 2.78 121 2.79 120 2.80
                           124 2.83 101 2.95  12 2.97  98 2.98  75 3.00
 124  0.803  0.407  0.801-  13 2.64  12 2.66 104 2.68 109 2.69  84 2.71 101 2.72 123 2.83  79 2.84
                           105 2.88  17 2.93  83 3.01 121 3.04 122 3.04 117 3.13
 
  LATTYP: Found a base centered monoclinic cell.
 ALAT       =    15.0482117230
 B/A-ratio  =     1.4081981607
 C/A-ratio  =     1.6569313785
 COS(beta)  =    -0.9052205732
  
  Lattice vectors:
  
 A1 = (   4.3071057600,   6.1309426610, -10.6177469370)
 A2 = ( -12.9951470410,   0.0135483230,  -0.0223585750)
 A3 = (  13.0316404910,  -0.0404660660,  21.2572762500)


Analysis of symmetry for initial positions (statically):
=====================================================================
 Subroutine PRICEL returns:
 Original cell was already a primitive cell.
 

 Routine SETGRP: Setting up the symmetry group for a 
 base centered monoclinic supercell.


 Subroutine GETGRP returns: Found  1 space group operations
 (whereof  1 operations were pure point group operations)
 out of a pool of  4 trial point group operations.


The static configuration has the point symmetry C_1 .


Analysis of symmetry for dynamics (positions and initial velocities):
=====================================================================
 Subroutine PRICEL returns:
 Original cell was already a primitive cell.
 

 Routine SETGRP: Setting up the symmetry group for a 
 base centered monoclinic supercell.


 Subroutine GETGRP returns: Found  1 space group operations
 (whereof  1 operations were pure point group operations)
 out of a pool of  4 trial point group operations.


The dynamic configuration has the point symmetry C_1 .


 Subroutine INISYM returns: Found  1 space group operations
 (whereof  1 operations are pure point group operations),
 and found     1 'primitive' translations


----------------------------------------------------------------------------------------

                                     Primitive cell                                     

  volume of cell :    1689.3617

  direct lattice vectors                    reciprocal lattice vectors
    12.995147041 -0.013548323  0.022358575     0.076899476  0.027363571  0.046994778
    -4.344442071 12.248515902 -0.022934774     0.000004010  0.081732338  0.047195846
    -4.307105760 -6.130942661 10.617746937    -0.000161924  0.000118924  0.094184924

  length of vectors
    12.995173338 12.996185776 12.995236356     0.094184943  0.094380205  0.094185138

  position of ions in fractional coordinates (direct lattice)
     0.006700962  0.995615292  0.004387408
     0.992844999  0.002958701  0.196429550
     0.002976183  0.996878054  0.396126095
     0.004186811  0.000727896  0.598442202
     0.999904239  0.003702798  0.804642182
     0.004732890  0.202108833  0.199088329
     0.003907937  0.199601481  0.398803104
     0.005316011  0.199249236  0.601117254
     0.001146211  0.396492926  0.197435281
     0.005105206  0.402049623  0.401801512
     0.003223697  0.398838468  0.599825484
     0.008526812  0.400320880  0.809373276
     0.003519766  0.609937906  0.006698228
     0.000093419  0.592976550  0.202753720
     0.003329093  0.599983314  0.403101154
     0.004400602  0.602981553  0.601024953
     0.001773227  0.596487439  0.798006461
     0.951440177  0.756063034  0.182204932
     0.994674850  0.794288741  0.403346147
     0.002800231  0.802524066  0.602910687
     0.000234341  0.801490972  0.805130959
     0.207505119  0.008544941  0.990650514
     0.229077405  0.024664489  0.182772166
     0.136798077  0.935527414  0.274192587
     0.200935324  0.001950299  0.598201946
     0.198591665  0.999497050  0.799267779
     0.199431165  0.203505711  0.002386416
     0.204246550  0.208811053  0.200934566
     0.200683349  0.194320494  0.395080965
     0.199095354  0.205059304  0.601572211
     0.194984354  0.201153797  0.802069770
     0.195428229  0.396444300  0.998035634
     0.200610270  0.397553469  0.199826051
     0.201623821  0.400342477  0.400936636
     0.201028538  0.400584983  0.597932184
     0.200682659  0.403529460  0.800059366
     0.200820191  0.603058409  0.999920035
     0.195619467  0.591079618  0.194170432
     0.201860014  0.600365306  0.400551639
     0.202700315  0.601253127  0.601030289
     0.200246340  0.602411659  0.801314912
     0.190739364  0.803184668  0.997522945
     0.206518804  0.794880234  0.195809238
     0.195545276  0.799317981  0.395002828
     0.201419729  0.801371926  0.599742663
     0.199543814  0.799441105  0.801644034
     0.402505750  0.999674336  0.995834419
     0.412492189  0.002664615  0.196161498
     0.392829540  0.998465978  0.391111835
     0.390131426  0.993461538  0.595269606
     0.401114263  0.000413039  0.799572751
     0.401964244  0.203562161  0.997898924
     0.410331413  0.211901583  0.198788453
     0.408752130  0.211865063  0.399929475
     0.388940211  0.195803591  0.593565151
     0.394306513  0.200786136  0.800237461
     0.397482198  0.401693878  0.998626415
     0.401946232  0.405275400  0.200205182
     0.402091326  0.406134514  0.402557571
     0.398488710  0.400095993  0.598879076
     0.399605474  0.403426829  0.800810939
     0.399255671  0.600548186  0.998511610
     0.400377245  0.598474955  0.199373185
     0.400014919  0.600738809  0.401155167
     0.400608737  0.601689807  0.600561740
     0.400154695  0.602393709  0.800489871
     0.398520257  0.798995402  0.996256032
     0.403062811  0.798628560  0.198196893
     0.394275506  0.795027225  0.394872693
     0.400544496  0.801733278  0.599031226
     0.400979670  0.800141636  0.798615354
     0.599566888  0.998367535  0.997520366
     0.602288680  0.000846625  0.197120716
     0.594978459  0.994251217  0.389949966
     0.609992037  0.000585494  0.808216181
     0.603972117  0.198436531  0.000926481
     0.604387377  0.203321787  0.199529138
     0.605196295  0.203885625  0.399181179
     0.577941285  0.199636508  0.580100158
     0.595459995  0.394504816  0.997419814
     0.600781143  0.401979461  0.200845501
     0.605954308  0.408650728  0.403358082
     0.602712634  0.407419046  0.602088965
     0.593757833  0.405774161  0.797702263
     0.595284579  0.600253249  0.999139832
     0.596995474  0.599461186  0.200665975
     0.600885002  0.605160227  0.402814675
     0.600675410  0.602255811  0.600844265
     0.606139264  0.607211981  0.804173796
     0.601136222  0.800372765  0.997836247
     0.600210428  0.800257052  0.199456992
     0.601736607  0.802810512  0.403963132
     0.603148327  0.802203868  0.604260288
     0.601983131  0.800341411  0.802372313
     0.805255157  0.002784356  0.999465288
     0.799299048  0.001379063  0.198730976
     0.804518295  0.004022912  0.403527642
     0.810788539  0.002685736  0.610209827
     0.803504722  0.201385132  0.195520153
     0.805399746  0.201960270  0.396882158
     0.809797541  0.395560770  0.007612366
     0.800917483  0.398421875  0.203535680
     0.805856142  0.402915592  0.402993498
     0.802723795  0.406523395  0.594365810
     0.783701784  0.581500361  0.989595168
     0.790116043  0.589692625  0.200531112
     0.801069403  0.601336710  0.403784416
     0.804445705  0.605986035  0.603300487
     0.819933095  0.624118919  0.815905817
     0.808159114  0.800231212  0.001780400
     0.789023778  0.799827267  0.201273625
     0.800270315  0.803258965  0.403528139
     0.803326341  0.803051126  0.600566825
     0.800092481  0.810508803  0.799555683
     0.003221571  0.199265085  0.002565334
     0.008282580  0.200486457  0.803579420
     0.008674187  0.403050493  0.006979817
     0.808114632  0.999832478  0.807424842
     0.805232077  0.199791889  0.006392914
     0.595985205  0.002980886  0.597395382
     0.598603568  0.201688444  0.796056057
     0.798961217  0.199760013  0.597589852
     0.819797878  0.201342990  0.818266653
     0.803369903  0.406914079  0.800594545

  ion indices of the primitive-cell ions
   primitive index   ion index
                 1           1
                 2           2
                 3           3
                 4           4
                 5           5
                 6           6
                 7           7
                 8           8
                 9           9
                10          10
                11          11
                12          12
                13          13
                14          14
                15          15
                16          16
                17          17
                18          18
                19          19
                20          20
                21          21
                22          22
                23          23
                24          24
                25          25
                26          26
                27          27
                28          28
                29          29
                30          30
                31          31
                32          32
                33          33
                34          34
                35          35
                36          36
                37          37
                38          38
                39          39
                40          40
                41          41
                42          42
                43          43
                44          44
                45          45
                46          46
                47          47
                48          48
                49          49
                50          50
                51          51
                52          52
                53          53
                54          54
                55          55
                56          56
                57          57
                58          58
                59          59
                60          60
                61          61
                62          62
                63          63
                64          64
                65          65
                66          66
                67          67
                68          68
                69          69
                70          70
                71          71
                72          72
                73          73
                74          74
                75          75
                76          76
                77          77
                78          78
                79          79
                80          80
                81          81
                82          82
                83          83
                84          84
                85          85
                86          86
                87          87
                88          88
                89          89
                90          90
                91          91
                92          92
                93          93
                94          94
                95          95
                96          96
                97          97
                98          98
                99          99
               100         100
               101         101
               102         102
               103         103
               104         104
               105         105
               106         106
               107         107
               108         108
               109         109
               110         110
               111         111
               112         112
               113         113
               114         114
               115         115
               116         116
               117         117
               118         118
               119         119
               120         120
               121         121
               122         122
               123         123
               124         124

----------------------------------------------------------------------------------------

 
 
 KPOINTS: KPOINTS created by Atomic Simulation Env

Automatic generation of k-mesh.
 Grid dimensions read from file:
 generate k-points for:    4    4    4

 Generating k-lattice:

  Cartesian coordinates                     Fractional coordinates (reciprocal lattice)
     0.019224869  0.006840893  0.011748694     0.250000000 -0.000000000 -0.000000000
     0.000001002  0.020433085  0.011798961     0.000000000  0.250000000  0.000000000
    -0.000040481  0.000029731  0.023546231     0.000000000  0.000000000  0.250000000

  Length of vectors
     0.023546236  0.023595051  0.023546285

  Shift w.r.t. Gamma in fractional coordinates (k-lattice)
     0.000000000  0.000000000  0.000000000

 
 Subroutine IBZKPT returns following result:
 ===========================================
 
 Found     36 irreducible k-points:
 
 Following reciprocal coordinates:
            Coordinates               Weight
  0.000000  0.000000  0.000000      1.000000
  0.250000  0.000000  0.000000      2.000000
  0.000000  0.000000 -0.250000      2.000000
  0.500000  0.000000  0.000000      1.000000
  0.000000  0.000000  0.500000      1.000000
  0.000000  0.250000  0.000000      2.000000
  0.250000  0.250000  0.000000      2.000000
  0.000000 -0.250000 -0.250000      2.000000
  0.500000  0.250000  0.000000      2.000000
  0.000000 -0.250000  0.500000      2.000000
 -0.250000  0.250000  0.000000      2.000000
  0.000000 -0.250000  0.250000      2.000000
  0.000000  0.500000  0.000000      1.000000
  0.250000  0.500000  0.000000      2.000000
  0.000000  0.500000 -0.250000      2.000000
  0.500000  0.500000  0.000000      1.000000
  0.000000  0.500000  0.500000      1.000000
  0.250000  0.000000  0.250000      2.000000
  0.500000  0.000000  0.250000      2.000000
 -0.250000  0.000000  0.500000      2.000000
 -0.250000  0.000000  0.250000      2.000000
  0.250000  0.250000  0.250000      2.000000
  0.500000  0.250000  0.250000      2.000000
 -0.250000 -0.250000  0.500000      2.000000
 -0.250000  0.250000  0.250000      2.000000
 -0.250000 -0.250000  0.250000      2.000000
  0.250000  0.500000  0.250000      2.000000
  0.500000  0.500000  0.250000      2.000000
 -0.250000  0.500000  0.500000      2.000000
 -0.250000  0.500000  0.250000      2.000000
  0.250000 -0.250000  0.250000      2.000000
  0.500000 -0.250000  0.250000      2.000000
 -0.250000  0.250000  0.500000      2.000000
  0.500000  0.000000  0.500000      1.000000
  0.500000  0.250000  0.500000      2.000000
  0.500000  0.500000  0.500000      1.000000
 
 Following cartesian coordinates:
            Coordinates               Weight
  0.000000  0.000000  0.000000      1.000000
  0.019225  0.006841  0.011749      2.000000
  0.000040 -0.000030 -0.023546      2.000000
  0.038450  0.013682  0.023497      1.000000
 -0.000081  0.000059  0.047092      1.000000
  0.000001  0.020433  0.011799      2.000000
  0.019226  0.027274  0.023548      2.000000
  0.000039 -0.020463 -0.035345      2.000000
  0.038451  0.034115  0.035296      2.000000
 -0.000082 -0.020374  0.035294      2.000000
 -0.019224  0.013592  0.000050      2.000000
 -0.000041 -0.020403  0.011747      2.000000
  0.000002  0.040866  0.023598      1.000000
  0.019227  0.047707  0.035347      2.000000
  0.000042  0.040836  0.000052      2.000000
  0.038452  0.054548  0.047095      1.000000
 -0.000079  0.040926  0.070690      1.000000
  0.019184  0.006871  0.035295      2.000000
  0.038409  0.013712  0.047044      2.000000
 -0.019306 -0.006781  0.035344      2.000000
 -0.019265 -0.006811  0.011798      2.000000
  0.019185  0.027304  0.047094      2.000000
  0.038410  0.034145  0.058843      2.000000
 -0.019307 -0.027215  0.023545      2.000000
 -0.019264  0.013622  0.023596      2.000000
 -0.019266 -0.027244 -0.000001      2.000000
  0.019186  0.047737  0.058893      2.000000
  0.038411  0.054578  0.070642      2.000000
 -0.019304  0.034085  0.058942      2.000000
 -0.019263  0.034055  0.035395      2.000000
  0.019183 -0.013562  0.023496      2.000000
  0.038408 -0.006722  0.035245      2.000000
 -0.019305  0.013652  0.047143      2.000000
  0.038369  0.013741  0.070590      1.000000
  0.038370  0.034174  0.082389      2.000000
  0.038371  0.054607  0.094188      1.000000
 


--------------------------------------------------------------------------------------------------------




 Dimension of arrays:
   k-points           NKPTS =     36   k-points in BZ     NKDIM =     36   number of bands    NBANDS=    820
   number of dos      NEDOS =    301   number of ions     NIONS =    124
   non local maximal  LDIM  =      6   non local SUM 2l+1 LMDIM =     18
   total plane-waves  NPLWV = 941192
   max r-space proj   IRMAX =      1   max aug-charges    IRDMAX=  21827
   dimension x,y,z NGX =    98 NGY =   98 NGZ =   98
   dimension x,y,z NGXF=   196 NGYF=  196 NGZF=  196
   support grid    NGXF=   196 NGYF=  196 NGZF=  196
   ions per type =             114   5   5
   NGX,Y,Z   is equivalent  to a cutoff of  12.54, 12.54, 12.54 a.u.
   NGXF,Y,Z  is equivalent  to a cutoff of  25.07, 25.07, 25.07 a.u.

 SYSTEM =  unknown system                          
 POSCAR =  V  Cr Ti                                

 Startparameter for this run:
   NWRITE =      2    write-flag & timer
   PREC   = accura    normal or accurate (medium, high low for compatibility)
   ISTART =      0    job   : 0-new  1-cont  2-samecut
   ICHARG =      2    charge: 1-file 2-atom 10-const
   ISPIN  =      1    spin polarized calculation?
   LNONCOLLINEAR =      F non collinear calculations
   LSORBIT =      F    spin-orbit coupling
   INIWAV =      1    electr: 0-lowe 1-rand  2-diag
   LASPH  =      F    aspherical Exc in radial PAW
 Electronic Relaxation 1
   ENCUT  =  520.0 eV  38.22 Ry    6.18 a.u.  24.16 24.16 24.16*2*pi/ulx,y,z
   ENINI  =  520.0     initial cutoff
   ENAUG  =  598.5 eV  augmentation charge cutoff
   NELM   =    100;   NELMIN=  2; NELMDL= -5     # of ELM steps 
   EDIFF  = 0.1E-05   stopping-criterion for ELM
   LREAL  =      F    real-space projection
   NLSPLINE    = F    spline interpolate recip. space projectors
   LCOMPAT=      F    compatible to vasp.4.4
   GGA_COMPAT  = T    GGA compatible to vasp.4.4-vasp.4.6
   LMAXPAW     = -100 max onsite density
   LMAXMIX     =    2 max onsite mixed and CHGCAR
   VOSKOWN=      0    Vosko Wilk Nusair interpolation
   ROPT   =    0.00000   0.00000   0.00000
 Ionic relaxation
   EDIFFG = -.1E-01   stopping-criterion for IOM
   NSW    =     -1    number of steps for IOM
   NBLOCK =      1;   KBLOCK =      1    inner block; outer block 
   IBRION =      2    ionic relax: 0-MD 1-quasi-New 2-CG
   NFREE  =      1    steps in history (QN), initial steepest desc. (CG)
   ISIF   =      2    stress and relaxation
   IWAVPR =     11    prediction:  0-non 1-charg 2-wave 3-comb
   ISYM   =      2    0-nonsym 1-usesym 2-fastsym
   LCORR  =      T    Harris-Foulkes like correction to forces

   POTIM  = 0.2000    time-step for ionic-motion
   TEIN   =    0.0    initial temperature
   TEBEG  =    0.0;   TEEND  =   0.0 temperature during run
   SMASS  =  -3.00    Nose mass-parameter (am)
   estimated Nose-frequenzy (Omega)   =  0.10E-29 period in steps = 0.31E+47 mass=  -0.386E-26a.u.
   SCALEE = 1.0000    scale energy and forces
   NPACO  =    256;   APACO  = 10.0  distance and # of slots for P.C.
   PSTRESS=    0.0 pullay stress

  Mass of Ions in am
   POMASS =  50.94 52.00 47.88
  Ionic Valenz
   ZVAL   =  11.00 12.00 10.00
  Atomic Wigner-Seitz radii
   RWIGS  =  -1.00 -1.00 -1.00
  virtual crystal weights 
   VCA    =   1.00  1.00  1.00
   NELECT =    1364.0000    total number of electrons
   NUPDOWN=      -1.0000    fix difference up-down

 DOS related values:
   EMIN   =  10.00;   EMAX   =-10.00  energy-range for DOS
   EFERMI =   0.00;   METHOD = LEGACY      
   ISMEAR =     1;   SIGMA  =   0.20  broadening in eV -4-tet -1-fermi 0-gaus

 Electronic relaxation 2 (details)
   IALGO  =     38    algorithm
   LDIAG  =      T    sub-space diagonalisation (order eigenvalues)
   LSUBROT=      F    optimize rotation matrix (better conditioning)
   TURBO    =      0    0=normal 1=particle mesh
   IRESTART =      0    0=no restart 2=restart with 2 vectors
   NREBOOT  =      0    no. of reboots
   NMIN     =      0    reboot dimension
   EREF     =   0.00    reference energy to select bands
   IMIX   =      4    mixing-type and parameters
     AMIX     =   0.40;   BMIX     =  1.00
     AMIX_MAG =   1.60;   BMIX_MAG =  1.00
     AMIN     =   0.10
     WC   =   100.;   INIMIX=   1;  MIXPRE=   1;  MAXMIX= -45

 Intra band minimization:
   WEIMIN = 0.0010     energy-eigenvalue tresh-hold
   EBREAK =  0.30E-09  absolut break condition
   DEPER  =   0.30     relativ break condition  

   TIME   =   0.40     timestep for ELM

  volume/ion in A,a.u.               =      13.62        91.94
  Fermi-wavevector in a.u.,A,eV,Ry     =   1.524423  2.880741 31.618097  2.323865
  Thomas-Fermi vector in A             =   2.632732
 
 Write flags
   LWAVE        =      F    write WAVECAR
   LDOWNSAMPLE  =      F    k-point downsampling of WAVECAR
   LCHARG       =      T    write CHGCAR
   LVTOT        =      F    write LOCPOT, total local potential
   LVHAR        =      F    write LOCPOT, Hartree potential only
   LELF         =      F    write electronic localiz. function (ELF)
   LORBIT       =     11    0 simple, 1 ext, 2 COOP (PROOUT), +10 PAW based schemes


 Dipole corrections
   LMONO  =      F    monopole corrections only (constant potential shift)
   LDIPOL =      F    correct potential (dipole corrections)
   IDIPOL =      0    1-x, 2-y, 3-z, 4-all directions 
   EPSILON=  1.0000000 bulk dielectric constant

 Exchange correlation treatment:
   GGA     =    PE    GGA type
   LEXCH   =     8    internal setting for exchange type
   LIBXC   =     F    Libxc                    
   VOSKOWN =     0    Vosko Wilk Nusair interpolation
   LHFCALC =     F    Hartree Fock is set to
   LHFONE  =     F    Hartree Fock one center treatment
   AEXX    =    0.0000 exact exchange contribution

 Linear response parameters
   LEPSILON=     F    determine dielectric tensor
   LRPA    =     F    only Hartree local field effects (RPA)
   LNABLA  =     F    use nabla operator in PAW spheres
   LVEL    =     F    velocity operator in full k-point grid
   CSHIFT  =0.1000    complex shift for real part using Kramers Kronig
   OMEGAMAX=  -1.0    maximum frequency
   DEG_THRESHOLD= 0.2000000E-02 threshold for treating states as degnerate
   RTIME   =   -0.100 relaxation time in fs
  (WPLASMAI=    0.000 imaginary part of plasma frequency in eV, 0.658/RTIME)
   DFIELD  = 0.0000000 0.0000000 0.0000000 field for delta impulse in time
 
  Optional k-point grid parameters
   LKPOINTS_OPT  =     F    use optional k-point grid
   KPOINTS_OPT_MODE=     1    mode for optional k-point grid
 
 Orbital magnetization related:
   ORBITALMAG=     F  switch on orbital magnetization
   LCHIMAG   =     F  perturbation theory with respect to B field
   DQ        =  0.001000  dq finite difference perturbation B field
   LLRAUG    =     F  two centre corrections for induced B field
   LBONE     =     F  B-component reconstruction in AE one-centre
   LVGVCALC  =     T  calculate vGv susceptibility
   LVGVAPPL  =     F  apply vGv susceptibility instead of pGv for G=0

 Random number generation:
   RANDOM_GENERATOR = DEFAULT
   PCG_SEED         = not used


--------------------------------------------------------------------------------------------------------


 conjugate gradient relaxation of ions
 charge density and potential will be updated during run
 non-spin polarized calculation
 Variant of blocked Davidson
 Davidson routine will perform the subspace rotation
 perform sub-space diagonalisation
    after iterative eigenvector-optimisation
 modified Broyden-mixing scheme, WC =      100.0
 initial mixing is a Kerker type mixing with AMIX =  0.4000 and BMIX =      1.0000
 Hartree-type preconditioning will be used
 using additional bands           138
 reciprocal scheme for non local part
 use partial core corrections
 calculate Harris-corrections to forces 
   (improved forces if not selfconsistent)
 use gradient corrections 
 use of overlap-Matrix (Vanderbilt PP)
 Methfessel and Paxton  Order N= 1 SIGMA  =   0.20


--------------------------------------------------------------------------------------------------------


  energy-cutoff  :      520.00
  volume of cell :     1689.36
      direct lattice vectors                 reciprocal lattice vectors
    12.995147041 -0.013548323  0.022358575     0.076899476  0.027363571  0.046994778
    -4.344442071 12.248515902 -0.022934774     0.000004010  0.081732338  0.047195846
    -4.307105760 -6.130942661 10.617746937    -0.000161924  0.000118924  0.094184924

  length of vectors
    12.995173338 12.996185776 12.995236356     0.094184943  0.094380205  0.094185138


 
 k-points in units of 2pi/SCALE and weight: KPOINTS created by Atomic Simulation Env
   0.00000000  0.00000000  0.00000000       0.016
   0.01922487  0.00684089  0.01174869       0.031
   0.00004048 -0.00002973 -0.02354623       0.031
   0.03844974  0.01368179  0.02349739       0.016
  -0.00008096  0.00005946  0.04709246       0.016
   0.00000100  0.02043308  0.01179896       0.031
   0.01922587  0.02727398  0.02354766       0.031
   0.00003948 -0.02046282 -0.03534519       0.031
   0.03845074  0.03411487  0.03529635       0.031
  -0.00008196 -0.02037362  0.03529350       0.031
  -0.01922387  0.01359219  0.00005027       0.031
  -0.00004148 -0.02040335  0.01174727       0.031
   0.00000200  0.04086617  0.02359792       0.016
   0.01922687  0.04770706  0.03534662       0.031
   0.00004249  0.04083644  0.00005169       0.031
   0.03845174  0.05454795  0.04709531       0.016
  -0.00007896  0.04092563  0.07069039       0.016
   0.01918439  0.00687062  0.03529493       0.031
   0.03840926  0.01371152  0.04704362       0.031
  -0.01930583 -0.00678143  0.03534377       0.031
  -0.01926535 -0.00681116  0.01179754       0.031
   0.01918539  0.02730371  0.04709389       0.031
   0.03841026  0.03414460  0.05884258       0.031
  -0.01930683 -0.02721452  0.02354481       0.031
  -0.01926435  0.01362192  0.02359650       0.031
  -0.01926635 -0.02724425 -0.00000142       0.031
   0.01918639  0.04773679  0.05889285       0.031
   0.03841126  0.05457769  0.07064154       0.031
  -0.01930383  0.03408474  0.05894169       0.031
  -0.01926335  0.03405501  0.03539546       0.031
   0.01918339 -0.01356246  0.02349596       0.031
   0.03840825 -0.00672157  0.03524466       0.031
  -0.01930483  0.01365165  0.04714273       0.031
   0.03836878  0.01374125  0.07058985       0.016
   0.03836978  0.03417433  0.08238881       0.031
   0.03837078  0.05460742  0.09418777       0.016
 
 k-points in reciprocal lattice and weights: KPOINTS created by Atomic Simulation Env
   0.00000000  0.00000000  0.00000000       0.016
   0.25000000  0.00000000  0.00000000       0.031
   0.00000000  0.00000000 -0.25000000       0.031
   0.50000000  0.00000000  0.00000000       0.016
   0.00000000  0.00000000  0.50000000       0.016
   0.00000000  0.25000000  0.00000000       0.031
   0.25000000  0.25000000  0.00000000       0.031
   0.00000000 -0.25000000 -0.25000000       0.031
   0.50000000  0.25000000  0.00000000       0.031
   0.00000000 -0.25000000  0.50000000       0.031
  -0.25000000  0.25000000  0.00000000       0.031
   0.00000000 -0.25000000  0.25000000       0.031
   0.00000000  0.50000000  0.00000000       0.016
   0.25000000  0.50000000  0.00000000       0.031
   0.00000000  0.50000000 -0.25000000       0.031
   0.50000000  0.50000000  0.00000000       0.016
   0.00000000  0.50000000  0.50000000       0.016
   0.25000000  0.00000000  0.25000000       0.031
   0.50000000  0.00000000  0.25000000       0.031
  -0.25000000  0.00000000  0.50000000       0.031
  -0.25000000  0.00000000  0.25000000       0.031
   0.25000000  0.25000000  0.25000000       0.031
   0.50000000  0.25000000  0.25000000       0.031
  -0.25000000 -0.25000000  0.50000000       0.031
  -0.25000000  0.25000000  0.25000000       0.031
  -0.25000000 -0.25000000  0.25000000       0.031
   0.25000000  0.50000000  0.25000000       0.031
   0.50000000  0.50000000  0.25000000       0.031
  -0.25000000  0.50000000  0.50000000       0.031
  -0.25000000  0.50000000  0.25000000       0.031
   0.25000000 -0.25000000  0.25000000       0.031
   0.50000000 -0.25000000  0.25000000       0.031
  -0.25000000  0.25000000  0.50000000       0.031
   0.50000000  0.00000000  0.50000000       0.016
   0.50000000  0.25000000  0.50000000       0.031
   0.50000000  0.50000000  0.50000000       0.016
 
 position of ions in fractional coordinates (direct lattice) 
   0.00670096  0.99561529  0.00438741
   0.99284500  0.00295870  0.19642955
   0.00297618  0.99687805  0.39612609
   0.00418681  0.00072790  0.59844220
   0.99990424  0.00370280  0.80464218
   0.00473289  0.20210883  0.19908833
   0.00390794  0.19960148  0.39880310
   0.00531601  0.19924924  0.60111725
   0.00114621  0.39649293  0.19743528
   0.00510521  0.40204962  0.40180151
   0.00322370  0.39883847  0.59982548
   0.00852681  0.40032088  0.80937328
   0.00351977  0.60993791  0.00669823
   0.00009342  0.59297655  0.20275372
   0.00332909  0.59998331  0.40310115
   0.00440060  0.60298155  0.60102495
   0.00177323  0.59648744  0.79800646
   0.95144018  0.75606303  0.18220493
   0.99467485  0.79428874  0.40334615
   0.00280023  0.80252407  0.60291069
   0.00023434  0.80149097  0.80513096
   0.20750512  0.00854494  0.99065051
   0.22907740  0.02466449  0.18277217
   0.13679808  0.93552741  0.27419259
   0.20093532  0.00195030  0.59820195
   0.19859166  0.99949705  0.79926778
   0.19943117  0.20350571  0.00238642
   0.20424655  0.20881105  0.20093457
   0.20068335  0.19432049  0.39508096
   0.19909535  0.20505930  0.60157221
   0.19498435  0.20115380  0.80206977
   0.19542823  0.39644430  0.99803563
   0.20061027  0.39755347  0.19982605
   0.20162382  0.40034248  0.40093664
   0.20102854  0.40058498  0.59793218
   0.20068266  0.40352946  0.80005937
   0.20082019  0.60305841  0.99992004
   0.19561947  0.59107962  0.19417043
   0.20186001  0.60036531  0.40055164
   0.20270032  0.60125313  0.60103029
   0.20024634  0.60241166  0.80131491
   0.19073936  0.80318467  0.99752295
   0.20651880  0.79488023  0.19580924
   0.19554528  0.79931798  0.39500283
   0.20141973  0.80137193  0.59974266
   0.19954381  0.79944111  0.80164403
   0.40250575  0.99967434  0.99583442
   0.41249219  0.00266461  0.19616150
   0.39282954  0.99846598  0.39111183
   0.39013143  0.99346154  0.59526961
   0.40111426  0.00041304  0.79957275
   0.40196424  0.20356216  0.99789892
   0.41033141  0.21190158  0.19878845
   0.40875213  0.21186506  0.39992948
   0.38894021  0.19580359  0.59356515
   0.39430651  0.20078614  0.80023746
   0.39748220  0.40169388  0.99862642
   0.40194623  0.40527540  0.20020518
   0.40209133  0.40613451  0.40255757
   0.39848871  0.40009599  0.59887908
   0.39960547  0.40342683  0.80081094
   0.39925567  0.60054819  0.99851161
   0.40037724  0.59847496  0.19937318
   0.40001492  0.60073881  0.40115517
   0.40060874  0.60168981  0.60056174
   0.40015470  0.60239371  0.80048987
   0.39852026  0.79899540  0.99625603
   0.40306281  0.79862856  0.19819689
   0.39427551  0.79502723  0.39487269
   0.40054450  0.80173328  0.59903123
   0.40097967  0.80014164  0.79861535
   0.59956689  0.99836754  0.99752037
   0.60228868  0.00084663  0.19712072
   0.59497846  0.99425122  0.38994997
   0.60999204  0.00058549  0.80821618
   0.60397212  0.19843653  0.00092648
   0.60438738  0.20332179  0.19952914
   0.60519630  0.20388562  0.39918118
   0.57794128  0.19963651  0.58010016
   0.59545999  0.39450482  0.99741981
   0.60078114  0.40197946  0.20084550
   0.60595431  0.40865073  0.40335808
   0.60271263  0.40741905  0.60208897
   0.59375783  0.40577416  0.79770226
   0.59528458  0.60025325  0.99913983
   0.59699547  0.59946119  0.20066597
   0.60088500  0.60516023  0.40281467
   0.60067541  0.60225581  0.60084427
   0.60613926  0.60721198  0.80417380
   0.60113622  0.80037277  0.99783625
   0.60021043  0.80025705  0.19945699
   0.60173661  0.80281051  0.40396313
   0.60314833  0.80220387  0.60426029
   0.60198313  0.80034141  0.80237231
   0.80525516  0.00278436  0.99946529
   0.79929905  0.00137906  0.19873098
   0.80451829  0.00402291  0.40352764
   0.81078854  0.00268574  0.61020983
   0.80350472  0.20138513  0.19552015
   0.80539975  0.20196027  0.39688216
   0.80979754  0.39556077  0.00761237
   0.80091748  0.39842188  0.20353568
   0.80585614  0.40291559  0.40299350
   0.80272379  0.40652339  0.59436581
   0.78370178  0.58150036  0.98959517
   0.79011604  0.58969263  0.20053111
   0.80106940  0.60133671  0.40378442
   0.80444571  0.60598603  0.60330049
   0.81993309  0.62411892  0.81590582
   0.80815911  0.80023121  0.00178040
   0.78902378  0.79982727  0.20127362
   0.80027031  0.80325896  0.40352814
   0.80332634  0.80305113  0.60056682
   0.80009248  0.81050880  0.79955568
   0.00322157  0.19926509  0.00256533
   0.00828258  0.20048646  0.80357942
   0.00867419  0.40305049  0.00697982
   0.80811463  0.99983248  0.80742484
   0.80523208  0.19979189  0.00639291
   0.59598521  0.00298089  0.59739538
   0.59860357  0.20168844  0.79605606
   0.79896122  0.19976001  0.59758985
   0.81979788  0.20134299  0.81826665
   0.80336990  0.40691408  0.80059454
 
 position of ions in cartesian coordinates  (Angst):
  -4.25721000 12.16782000  0.02390000
  12.04327000 -1.18151000  2.10777000
  -5.99836000  9.78161000  4.18317000
  -2.52630793 -3.66015590  6.35418477
   9.51213704 -4.90140832  8.56575857
  -1.67404000  1.25487000  2.10934000
  -2.53406000 -0.00027000  4.22990000
  -3.38562000 -1.24498000  6.37806000
  -2.55802000  3.64597000  2.08725000
  -3.41094000  2.46102000  4.25712000
  -4.27435000  1.20764000  6.35972000
  -5.11442000 -0.05900000  8.58473000
  -2.63295000  7.42972000  0.05721000
  -3.44822000  6.02001000  2.13919000
  -4.29953000  4.87747000  4.26634000
  -5.15111000  3.70072000  6.36780000
  -6.00546000  2.41353000  8.45939000
   8.29465704  8.13067168  1.93853857
   7.73795000  7.24249000  4.28665000
  -6.04693000  6.13328000  6.38321000
  -6.94677000  4.88086000  8.53030000
  -1.60740000 -5.97177000 10.52292000
   2.08252207 -0.82156590  1.94518477
  -3.46761000  9.77591000  2.89291000
   0.02619207 -3.64637590  6.35600477
  -5.20406000  7.33940000  8.46794000
   1.69724000  2.47531000  0.02513000
   0.88160000  1.32294000  2.13325000
   0.06204000 -0.04480000  4.19490000
  -0.89463000 -1.17923000  6.38709000
  -1.79465000 -2.45625000  8.51592000
  -3.48135576 -1.26569266 10.59216694
   0.01914000  3.64160000  2.11707000
  -0.84601000  2.44275000  4.25237000
  -1.70328000  1.23796000  6.34400000
  -2.59115000  0.03480000  8.49006000
  -4.31702576  1.25339734 10.60755694
  -0.86212000  6.04675000  2.05247000
  -1.71027000  4.89509000  4.24370000
  -2.56669000  3.67683000  6.37233000
  -3.46626000  2.46312000  8.49882000
  -5.30714000  3.71948000 10.57729000
  -1.61294000  8.53281000  2.06544000
  -2.63277000  7.36607000  4.18008000
  -3.44719000  6.13590000  6.35404000
  -4.33279000  4.87443000  8.49778000
  -3.40157000  6.13367000 10.55959000
   4.50393207 -1.17560590  2.09195477
  -0.91746000  9.82652000  4.13861000
  -1.81011000  8.51358000  6.30636000
   1.76690000 -4.90251000  8.49862000
   0.04116424 -3.63017266 10.59975694
   3.55552000  1.37116000  2.11500000
   2.66882000  0.13755000  4.25063000
   1.64713000 -1.24608000  6.30653000
   0.80506000 -2.45222000  8.50093000
  -0.88098576 -1.20775266 10.60283694
   2.60035000  3.73113000  2.12542000
   1.72695000  2.50104000  4.27393000
   0.86079000  1.22349000  6.35848000
  -0.00891000  0.02624000  8.50249000
  -1.72135576  1.22859734 10.59709694
   1.74420000  6.10266000  2.11212000
   0.86056000  4.89328000  4.25453000
   0.00528000  3.68237000  6.37177000
  -0.86479000  2.46525000  8.49453000
  -2.58334000  3.67312000 10.56858000
   0.91461000  8.56142000  2.09510000
  -0.03104000  7.31162000  4.18324000
  -0.85804000  6.14199000  6.35093000
  -1.70510000  4.89885000  8.47011000
  -0.84231576  6.10465734 10.58192694
   6.97413207 -1.20632590  2.10642477
   1.73281000  9.77928000  4.13089000
   4.44332000 -4.95622000  8.59506000
   6.98262000  2.41669000  0.01879000
   6.11139000  1.25890000  2.12740000
   5.25953000  0.04174000  4.24726000
   4.14457000 -1.11914000  6.16770000
   1.72819424 -1.29109266 10.59461694
   5.19580000  3.68414000  2.13674000
   4.36180000  2.52419000  4.28693000
   3.46907000  1.29074000  6.39696000
   2.51732000  0.07142000  8.47377000
   0.82464424  1.21847734 10.60815694
   4.28943000  6.10415000  2.13022000
   3.44454000  4.93454000  4.27654000
   2.60150000  3.68486000  6.37923000
   1.77521000  2.49889000  8.53814000
   0.03689424  3.67755734 10.58985694
   3.46407000  8.57097000  2.11285000
   2.59198000  7.34841000  4.28422000
   1.75026000  6.11295000  6.41097000
   0.88992000  4.87554000  8.51449000
   6.14751000 -6.10447000 10.63001000
   9.52506207 -1.21234590  2.12791477
   8.69932000 -2.43563000  4.30245000
   7.89641000 -3.71925000  6.49712000
   8.72463000  1.25706000  2.08933000
   7.87947000  0.02954000  4.22737000
   8.77216000  4.78739000  0.08986000
   7.80047000  3.62136000  2.16986000
   6.98604000  2.45347000  4.28766000
   6.10540000  1.32441000  6.31945000
   3.39573424  1.04474734 10.51145694
   6.84208000  5.98271000  2.13333000
   6.05840000  4.87905000  4.29140000
   5.22274000  3.71273000  6.40978000
   4.42951000  2.63115000  8.66710000
   7.01792000  9.77978000  0.01862000
   5.91177000  8.55201000  2.13637000
   5.17188000  7.35388000  4.28403000
   4.36383000  6.14326000  6.37621000
   3.43234000  5.01466000  8.48878000
  -0.83488000  2.42493000  0.02274000
  -4.22447000 -2.47115000  8.52779000
  -1.66837000  4.89386000  0.06506000
   2.68019000  7.28524000  8.56817000
   9.56859000  2.39705000  0.08130000
   5.15892000 -3.63416000  6.35625000
   3.47402000 -2.41830000  8.46108000
   6.94089000 -1.22785000  6.35834000
   6.25431000 -2.56170000  8.70186000
   5.22385000  0.06481000  8.50914000
 


--------------------------------------------------------------------------------------------------------


 k-point   1 :   0.0000 0.0000 0.0000  plane waves:   45567
 k-point   2 :   0.2500 0.0000 0.0000  plane waves:   45468
 k-point   3 :   0.0000 0.0000-0.2500  plane waves:   45468
 k-point   4 :   0.5000 0.0000 0.0000  plane waves:   45464
 k-point   5 :   0.0000 0.0000 0.5000  plane waves:   45464
 k-point   6 :   0.0000 0.2500 0.0000  plane waves:   45468
 k-point   7 :   0.2500 0.2500 0.0000  plane waves:   45502
 k-point   8 :   0.0000-0.2500-0.2500  plane waves:   45502
 k-point   9 :   0.5000 0.2500 0.0000  plane waves:   45494
 k-point  10 :   0.0000-0.2500 0.5000  plane waves:   45494
 k-point  11 :  -0.2500 0.2500 0.0000  plane waves:   45469
 k-point  12 :   0.0000-0.2500 0.2500  plane waves:   45470
 k-point  13 :   0.0000 0.5000 0.0000  plane waves:   45472
 k-point  14 :   0.2500 0.5000 0.0000  plane waves:   45502
 k-point  15 :   0.0000 0.5000-0.2500  plane waves:   45502
 k-point  16 :   0.5000 0.5000 0.0000  plane waves:   45470
 k-point  17 :   0.0000 0.5000 0.5000  plane waves:   45470
 k-point  18 :   0.2500 0.0000 0.2500  plane waves:   45497
 k-point  19 :   0.5000 0.0000 0.2500  plane waves:   45499
 k-point  20 :  -0.2500 0.0000 0.5000  plane waves:   45499
 k-point  21 :  -0.2500 0.0000 0.2500  plane waves:   45470
 k-point  22 :   0.2500 0.2500 0.2500  plane waves:   45516
 k-point  23 :   0.5000 0.2500 0.2500  plane waves:   45501
 k-point  24 :  -0.2500-0.2500 0.5000  plane waves:   45501
 k-point  25 :  -0.2500 0.2500 0.2500  plane waves:   45454
 k-point  26 :  -0.2500-0.2500 0.2500  plane waves:   45454
 k-point  27 :   0.2500 0.5000 0.2500  plane waves:   45493
 k-point  28 :   0.5000 0.5000 0.2500  plane waves:   45500
 k-point  29 :  -0.2500 0.5000 0.5000  plane waves:   45500
 k-point  30 :  -0.2500 0.5000 0.2500  plane waves:   45488
 k-point  31 :   0.2500-0.2500 0.2500  plane waves:   45479
 k-point  32 :   0.5000-0.2500 0.2500  plane waves:   45499
 k-point  33 :  -0.2500 0.2500 0.5000  plane waves:   45499
 k-point  34 :   0.5000 0.0000 0.5000  plane waves:   45474
 k-point  35 :   0.5000 0.2500 0.5000  plane waves:   45488
 k-point  36 :   0.5000 0.5000 0.5000  plane waves:   45516

 maximum and minimum number of plane-waves per node :     45567    45454

 maximum number of plane-waves:     45567
 maximum index in each direction: 
   IXMAX=   24   IYMAX=   24   IZMAX=   24
   IXMIN=  -24   IYMIN=  -24   IZMIN=  -24


 serial   3D FFT for wavefunctions
 parallel 3D FFT for charge:
    minimum data exchange during FFTs selected (reduces bandwidth)


 total amount of memory used by VASP MPI-rank0  6702056. kBytes
=======================================================================

   base      :      30000. kBytes
   nonl-proj :     799080. kBytes
   fftplans  :      67629. kBytes
   grid      :     159195. kBytes
   one-center:       1928. kBytes
   wavefun   :    5644224. kBytes
 
     INWAV:  cpu time      0.0001: real time      0.0001
 Broyden mixing: mesh for mixing (old mesh)
   NGX = 49   NGY = 49   NGZ = 49
  (NGX  =196   NGY  =196   NGZ  =196)
  gives a total of 117649 points

 initial charge density was supplied:
 charge density of overlapping atoms calculated
 number of electron    1364.0000000 magnetization 
 keeping initial charge density in first step


--------------------------------------------------------------------------------------------------------


 Maximum index for augmentation-charges          5252 (set IRDMAX)


--------------------------------------------------------------------------------------------------------


 First call to EWALD:  gamma=   0.149
 Maximum number of real-space cells 3x 3x 3
 Maximum number of reciprocal cells 3x 3x 3

    FEWALD:  cpu time      0.2529: real time      0.0408


--------------------------------------- Ionic step        1  -------------------------------------------




--------------------------------------- Iteration      1(   1)  ---------------------------------------


    POTLOK:  cpu time      0.2487: real time      0.3040
    SETDIJ:  cpu time      0.3089: real time      0.0393
     EDDAV:  cpu time     93.3837: real time     94.3580
       DOS:  cpu time      0.0556: real time      0.0558
    --------------------------------------------
      LOOP:  cpu time     93.9970: real time     94.7572

 eigenvalue-minimisations  : 59040
 total energy-change (2. order) : 0.2225833E+05  (-0.7247004E+05)
 number of electron    1364.0000000 magnetization 
 augmentation part     1364.0000000 magnetization 

 Free energy of the ion-electron system (eV)
  ---------------------------------------------------
  alpha Z        PSCENC =     12315.99909697
  Ewald energy   TEWEN  =   -129580.76878270
  -Hartree energ DENC   =    -36378.03833148
  -exchange      EXHF   =         0.00000000
  -V(xc)+E(xc)   XCENC  =      3692.47636331
  PAW double counting   =    134689.96621064  -132185.80545990
  entropy T*S    EENTRO =        -0.00571505
  eigenvalues    EBANDS =      5587.82333797
  atomic energy  EATOM  =    164116.68312662
  Solvation  Ediel_sol  =         0.00000000
  ---------------------------------------------------
  free energy    TOTEN  =     22258.32984638 eV

  energy without entropy =    22258.33556143  energy(sigma->0) =    22258.33175139


--------------------------------------------------------------------------------------------------------




--------------------------------------- Iteration      1(   2)  ---------------------------------------


     EDDAV:  cpu time     96.7607: real time     97.3119
       DOS:  cpu time      0.0594: real time      0.0598
    --------------------------------------------
      LOOP:  cpu time     96.8202: real time     97.3717

 eigenvalue-minimisations  : 63648
 total energy-change (2. order) :-0.2214080E+05  (-0.2187050E+05)
 number of electron    1364.0000000 magnetization 
 augmentation part     1364.0000000 magnetization 

 Free energy of the ion-electron system (eV)
  ---------------------------------------------------
  alpha Z        PSCENC =     12315.99909697
  Ewald energy   TEWEN  =   -129580.76878270
  -Hartree energ DENC   =    -36378.03833148
  -exchange      EXHF   =         0.00000000
  -V(xc)+E(xc)   XCENC  =      3692.47636331
  PAW double counting   =    134689.96621064  -132185.80545990
  entropy T*S    EENTRO =         0.00157327
  eigenvalues    EBANDS =    -16552.98545350
  atomic energy  EATOM  =    164116.68312662
  Solvation  Ediel_sol  =         0.00000000
  ---------------------------------------------------
  free energy    TOTEN  =       117.52834324 eV

  energy without entropy =      117.52676997  energy(sigma->0) =      117.52781881


--------------------------------------------------------------------------------------------------------




--------------------------------------- Iteration      1(   3)  ---------------------------------------


     EDDAV:  cpu time    121.6626: real time    122.4834
       DOS:  cpu time      0.0680: real time      0.0685
    --------------------------------------------
      LOOP:  cpu time    121.7306: real time    122.5519

 eigenvalue-minimisations  : 85148
 total energy-change (2. order) :-0.1327282E+04  (-0.1280953E+04)
 number of electron    1364.0000000 magnetization 
[...]
   -.997E+02 0.173E+03 -.688E+02   0.100E+03 -.173E+03 0.688E+02   -.267E+00 0.635E+00 -.236E-01   -.854E-02 0.112E-01 -.237E-01
   -.419E+01 0.457E+02 0.974E+01   0.406E+01 -.456E+02 -.988E+01   0.133E+00 -.997E-01 0.143E+00   0.448E-02 0.985E-02 0.489E-02
   0.936E+02 -.700E+02 0.148E+03   -.928E+02 0.701E+02 -.148E+03   -.816E+00 -.105E+00 0.371E+00   0.709E-02 0.516E-02 -.104E-01
   0.131E+03 -.150E+03 0.121E+03   -.130E+03 0.150E+03 -.120E+03   -.116E+00 -.591E+00 -.758E+00   0.828E-02 -.918E-04 0.330E-02
   0.897E+02 -.377E+02 0.127E+03   -.899E+02 0.372E+02 -.128E+03   0.212E+00 0.493E+00 0.422E+00   -.462E-02 0.315E-03 -.206E-01
   0.104E+03 -.564E+02 0.123E+03   -.104E+03 0.557E+02 -.122E+03   0.614E+00 0.617E+00 -.722E+00   -.108E-01 0.257E-03 0.217E-02
   0.266E+02 -.125E+03 -.313E+02   -.264E+02 0.125E+03 0.311E+02   -.168E+00 0.221E+00 0.225E+00   0.627E-02 -.127E-02 -.556E-02
   -.708E+02 -.642E+02 0.110E+03   0.705E+02 0.639E+02 -.110E+03   0.307E+00 0.287E+00 0.161E-01   -.795E-03 -.262E-02 -.987E-03
   0.138E+03 0.153E+02 -.485E+02   -.138E+03 -.151E+02 0.482E+02   -.775E-01 -.256E+00 0.295E+00   0.107E-02 -.185E-02 -.683E-02
   0.197E+03 -.145E+03 0.240E+03   -.197E+03 0.145E+03 -.240E+03   -.949E-01 0.412E-01 -.213E+00   -.159E-02 0.162E-02 -.940E-02
   0.341E+02 0.484E+02 0.718E+02   -.345E+02 -.483E+02 -.718E+02   0.327E+00 -.145E+00 0.797E-02   0.258E-02 -.120E-01 -.125E-01
 -----------------------------------------------------------------------------------------------
   0.824E+00 -.611E+00 0.223E+01   0.123E-11 0.124E-11 0.284E-13   -.818E+00 0.609E+00 -.222E+01   -.716E-02 0.470E-02 0.533E-03
 
 
 POSITION                                       TOTAL-FORCE (eV/Angst)
 -----------------------------------------------------------------------------------
     -4.25721     12.16782      0.02390        -0.028990      0.009379     -0.056552
     12.04327     -1.18151      2.10777         0.092046     -0.063059     -0.101873
     -5.99836      9.78161      4.18317        -0.171369      0.031318     -0.051785
     -2.52631     -3.66016      6.35418         0.006751     -0.035464     -0.003701
      9.51214     -4.90141      8.56576         0.002353     -0.001230      0.009408
     -1.67404      1.25487      2.10934         0.018115     -0.021091     -0.001608
     -2.53406     -0.00027      4.22990        -0.014231      0.013148     -0.014141
     -3.38562     -1.24498      6.37806         0.002263     -0.001015      0.003658
     -2.55802      3.64597      2.08725         0.001468      0.011565     -0.009568
     -3.41094      2.46102      4.25712        -0.007602      0.005340     -0.003968
     -4.27435      1.20764      6.35972        -0.010592      0.010517     -0.001976
     -5.11442     -0.05900      8.58473         0.001505      0.005127     -0.000592
     -2.63295      7.42972      0.05721         0.012017      0.006274     -0.062530
     -3.44822      6.02001      2.13919        -0.026468      0.064515     -0.001652
     -4.29953      4.87747      4.26634        -0.021892      0.039876     -0.009492
     -5.15111      3.70072      6.36780        -0.016400      0.018068     -0.001863
     -6.00546      2.41353      8.45939        -0.004623      0.006494     -0.017278
      8.29466      8.13067      1.93854         0.274060      0.358349     -0.577394
      7.73795      7.24249      4.28665         0.090981      0.149585     -0.253933
     -6.04693      6.13328      6.38321         0.001447      0.006097     -0.018024
     -6.94677      4.88086      8.53030         0.002098      0.000830      0.009245
     -1.60740     -5.97177     10.52292         0.025086      0.022770      0.018273
      2.08252     -0.82157      1.94518        -0.242724     -0.307746     -0.576275
     -3.46761      9.77591      2.89291         0.027180     -0.001999      2.525849
      0.02619     -3.64638      6.35600        -0.007376     -0.008702     -0.057458
     -5.20406      7.33940      8.46794         0.002629      0.007687     -0.009588
      1.69724      2.47531      0.02513        -0.009283      0.031965      0.023120
      0.88160      1.32294      2.13325         0.025011     -0.052896      0.004733
      0.06204     -0.04480      4.19490        -0.081800      0.146836     -0.016972
     -0.89463     -1.17923      6.38709        -0.000060     -0.006730     -0.057074
     -1.79465     -2.45625      8.51592         0.012475      0.000512     -0.013094
     -3.48136     -1.26569     10.59217        -0.000217      0.005466      0.013077
      0.01914      3.64160      2.11707        -0.001319     -0.004704     -0.005092
     -0.84601      2.44275      4.25237         0.005497      0.007902     -0.016891
     -1.70328      1.23796      6.34400         0.004443     -0.003129      0.002143
     -2.59115      0.03480      8.49006         0.009308     -0.012252     -0.003046
     -4.31703      1.25340     10.60756         0.011144     -0.007404      0.026757
     -0.86212      6.04675      2.05247        -0.019733      0.025134      0.005785
     -1.71027      4.89509      4.24370         0.000453     -0.002329     -0.019567
     -2.56669      3.67683      6.37233        -0.008165      0.006385     -0.010562
     -3.46626      2.46312      8.49882         0.011175      0.002583      0.000138
     -5.30714      3.71948     10.57729         0.057806     -0.024948     -0.057899
     -1.61294      8.53281      2.06544        -0.111653      0.019654     -0.109490
     -2.63277      7.36607      4.18008         0.091471     -0.166569     -0.011562
     -3.44719      6.13590      6.35404        -0.023889      0.000418      0.002716
     -4.33279      4.87443      8.49778         0.005924      0.006587      0.002519
     -3.40157      6.13367     10.55959         0.039539      0.005345      0.022788
      4.50393     -1.17561      2.09195        -0.087808      0.007879      0.004555
     -0.91746      9.82652      4.13861         0.147106     -0.031847     -0.041525
     -1.81011      8.51358      6.30636        -0.000654      0.005269     -0.071415
      1.76690     -4.90251      8.49862         0.005598      0.014074     -0.014208
      0.04116     -3.63017     10.59976         0.013488      0.019752      0.014925
      3.55552      1.37116      2.11500        -0.037705     -0.061659      0.016534
      2.66882      0.13755      4.25063        -0.091551     -0.179573     -0.235522
      1.64713     -1.24608      6.30653         0.020633      0.013592     -0.036791
      0.80506     -2.45222      8.50093        -0.003448     -0.004703     -0.027763
     -0.88099     -1.20775     10.60284        -0.005567     -0.002351      0.005458
      2.60035      3.73113      2.12542         0.002085     -0.015909      0.009483
      1.72695      2.50104      4.27393         0.025256     -0.040443     -0.003835
      0.86079      1.22349      6.35848         0.025957     -0.000886     -0.001461
     -0.00891      0.02624      8.50249        -0.014103     -0.016227     -0.014009
     -1.72136      1.22860     10.59710        -0.006428     -0.005219      0.003049
      1.74420      6.10266      2.11212        -0.003081     -0.001876      0.004327
      0.86056      4.89328      4.25453         0.009158     -0.000123     -0.007800
      0.00528      3.68237      6.37177         0.007878     -0.006858     -0.010053
     -0.86479      2.46525      8.49453        -0.000351     -0.001262     -0.006343
     -2.58334      3.67312     10.56858         0.008096      0.007380     -0.006811
      0.91461      8.56142      2.09510        -0.033075      0.014861     -0.015140
     -0.03104      7.31162      4.18324         0.014210     -0.003013     -0.002880
     -0.85804      6.14199      6.35093        -0.008767      0.000223      0.004729
     -1.70510      4.89885      8.47011        -0.003490      0.003289      0.001129
     -0.84232      6.10466     10.58193         0.004898      0.004563      0.013293
      6.97413     -1.20633      2.10642        -0.007047     -0.004664     -0.008002
      1.73281      9.77928      4.13089         0.003514     -0.001042     -0.027916
      4.44332     -4.95622      8.59506        -0.007412      0.001685     -0.008373
      6.98262      2.41669      0.01879        -0.000800      0.005632      0.008573
      6.11139      1.25890      2.12740        -0.012343     -0.000133      0.007389
      5.25953      0.04174      4.24726        -0.041900      0.011193     -0.008543
      4.14457     -1.11914      6.16770        -0.033786      0.059324      0.011807
      1.72819     -1.29109     10.59462        -0.012371     -0.020338      0.013562
      5.19580      3.68414      2.13674         0.003510      0.011341      0.016231
      4.36180      2.52419      4.28693        -0.012570     -0.023865     -0.009740
      3.46907      1.29074      6.39696        -0.002872     -0.012530     -0.012249
      2.51732      0.07142      8.47377        -0.005660     -0.018525     -0.008555
      0.82464      1.21848     10.60816        -0.039880     -0.006755      0.019974
      4.28943      6.10415      2.13022         0.015062      0.004135      0.003276
      3.44454      4.93454      4.27654         0.009201     -0.008772     -0.011593
      2.60150      3.68486      6.37923         0.014774     -0.016025      0.002896
      1.77521      2.49889      8.53814        -0.015177     -0.000266      0.005685
      0.03689      3.67756     10.58986        -0.012633     -0.011591     -0.004485
      3.46407      8.57097      2.11285         0.014537      0.000586     -0.010805
      2.59198      7.34841      4.28422        -0.003856     -0.006936     -0.010448
      1.75026      6.11295      6.41097         0.005438     -0.003988     -0.008395
      0.88992      4.87554      8.51449        -0.007042      0.004093      0.000047
      6.14751     -6.10447     10.63001        -0.012086      0.005236      0.020034
      9.52506     -1.21235      2.12791         0.033591     -0.017274     -0.000560
      8.69932     -2.43563      4.30245         0.001195     -0.003102     -0.024073
      7.89641     -3.71925      6.49712         0.007305     -0.002083     -0.013858
      8.72463      1.25706      2.08933        -0.003438      0.001532      0.017245
      7.87947      0.02954      4.22737         0.005825      0.016169     -0.011453
      8.77216      4.78739      0.08986         0.003742     -0.035649      0.024385
      7.80047      3.62136      2.16986        -0.002423      0.016723      0.004272
      6.98604      2.45347      4.28766        -0.005593      0.016555     -0.009019
      6.10540      1.32441      6.31945        -0.016674      0.011305      0.001776
      3.39573      1.04475     10.51146        -0.048665     -0.040947      0.002920
      6.84208      5.98271      2.13333         0.047758      0.071200      0.016239
      6.05840      4.87905      4.29140         0.014876      0.021485     -0.006026
      5.22274      3.71273      6.40978         0.004162      0.002943     -0.007204
      4.42951      2.63115      8.66710        -0.005870     -0.014858      0.015456
      7.01792      9.77978      0.01862        -0.046045      0.018377     -0.066337
      5.91177      8.55201      2.13637         0.089546     -0.023248     -0.001541
      5.17188      7.35388      4.28403         0.038440     -0.007949     -0.005607
      4.36383      6.14326      6.37621         0.016616     -0.012112      0.005430
      3.43234      5.01466      8.48878         0.008971     -0.018873     -0.011350
     -0.83488      2.42493      0.02274         0.009386      0.004019      0.007252
     -4.22447     -2.47115      8.52779        -0.004825     -0.004870      0.000483
     -1.66837      4.89386      0.06506        -0.006442     -0.007528     -0.005311
      2.68019      7.28524      8.56817         0.003279      0.006283      0.000510
      9.56859      2.39705      0.08130         0.007701     -0.003834      0.008777
      5.15892     -3.63416      6.35625        -0.005828      0.009187     -0.000949
      3.47402     -2.41830      8.46108        -0.003732     -0.002603     -0.006943
      6.94089     -1.22785      6.35834         0.006243      0.013210     -0.008324
      6.25431     -2.56170      8.70186        -0.001232      0.003251     -0.009605
      5.22385      0.06481      8.50914        -0.000666     -0.008489      0.003415
 -----------------------------------------------------------------------------------
    total drift:                               -0.000288      0.002696      0.010268


--------------------------------------------------------------------------------------------------------



  FREE ENERGIE OF THE ION-ELECTRON SYSTEM (eV)
  ---------------------------------------------------
  free  energy   TOTEN  =     -1101.00478104 eV

  energy  without entropy=    -1100.99265801  energy(sigma->0) =    -1101.00074003
 


--------------------------------------------------------------------------------------------------------


    POTLOK:  cpu time      0.4452: real time      0.1599


--------------------------------------------------------------------------------------------------------




--------------------------------------------------------------------------------------------------------


     LOOP+:  cpu time   4200.5440: real time   4199.6613
    4ORBIT:  cpu time      0.0000: real time      0.0000



 total charge

# of ion       s       p       d       tot
------------------------------------------
    1        0.345   6.214   3.022   9.581
    2        0.375   6.227   3.148   9.750
    3        0.344   6.219   3.014   9.578
    4        0.359   6.241   3.068   9.669
    5        0.359   6.251   3.044   9.654
    6        0.363   6.243   3.092   9.697
    7        0.356   6.241   3.051   9.647
    8        0.359   6.235   3.079   9.673
    9        0.361   6.251   3.067   9.678
   10        0.359   6.242   3.062   9.663
   11        0.354   6.236   3.049   9.638
   12        0.357   6.230   3.068   9.656
   13        0.343   6.204   3.021   9.568
   14        0.360   6.232   3.109   9.701
   15        0.360   6.237   3.085   9.682
   16        0.359   6.238   3.072   9.669
   17        0.367   6.233   3.075   9.675
   18        0.387   6.219   3.229   9.835
   19        0.359   6.229   3.079   9.666
   20        0.359   6.237   3.083   9.679
   21        0.355   6.223   3.021   9.599
   22        0.382   6.237   3.180   9.799
   23        0.388   6.222   3.219   9.828
   24        0.362   6.180   3.257   9.799
   25        0.350   6.215   3.051   9.616
   26        0.359   6.238   3.089   9.686
   27        0.362   6.244   3.095   9.701
   28        0.363   6.238   3.120   9.721
   29        0.345   6.222   3.019   9.586
   30        0.365   6.231   3.090   9.685
   31        0.360   6.243   3.078   9.681
   32        0.361   6.251   3.060   9.672
   33        0.364   6.252   3.083   9.700
   34        0.361   6.244   3.068   9.673
   35        0.362   6.238   3.089   9.688
   36        0.358   6.243   3.073   9.674
   37        0.357   6.240   3.056   9.653
   38        0.360   6.240   3.086   9.686
   39        0.358   6.242   3.049   9.649
   40        0.359   6.240   3.075   9.674
   41        0.360   6.236   3.097   9.693
   42        0.344   6.208   3.023   9.574
   43        0.374   6.225   3.143   9.742
   44        0.345   6.218   3.037   9.600
   45        0.358   6.241   3.046   9.645
   46        0.358   6.242   3.062   9.662
   47        0.359   6.233   3.092   9.684
   48        0.361   6.232   3.097   9.690
   49        0.345   6.216   3.030   9.591
   50        0.362   6.213   3.108   9.684
   51        0.354   6.232   3.061   9.647
   52        0.359   6.241   3.067   9.668
   53        0.363   6.248   3.068   9.679
   54        0.363   6.236   3.067   9.666
   55        0.348   6.208   3.043   9.599
   56        0.357   6.232   3.074   9.664
   57        0.360   6.240   3.067   9.668
   58        0.362   6.243   3.084   9.689
   59        0.360   6.240   3.085   9.684
   60        0.356   6.239   3.046   9.641
   61        0.359   6.233   3.097   9.688
   62        0.361   6.241   3.080   9.681
   63        0.358   6.239   3.067   9.664
   64        0.360   6.239   3.074   9.673
   65        0.358   6.241   3.063   9.663
   66        0.359   6.242   3.060   9.661
   67        0.356   6.240   3.046   9.642
   68        0.360   6.230   3.107   9.697
   69        0.354   6.235   3.047   9.636
   70        0.357   6.234   3.064   9.655
   71        0.359   6.240   3.072   9.671
   72        0.361   6.241   3.088   9.690
   73        0.359   6.239   3.099   9.696
   74        0.357   6.227   3.075   9.659
   75        0.354   6.235   3.046   9.635
   76        0.358   6.235   3.064   9.657
   77        0.358   6.241   3.065   9.664
   78        0.358   6.230   3.081   9.669
   79        0.364   6.223   3.096   9.683
   80        0.355   6.238   3.047   9.640
   81        0.362   6.245   3.071   9.678
   82        0.358   6.244   3.054   9.655
   83        0.355   6.226   3.077   9.658
   84        0.359   6.224   3.115   9.698
   85        0.358   6.234   3.079   9.671
   86        0.360   6.240   3.078   9.677
   87        0.360   6.239   3.077   9.676
   88        0.357   6.234   3.080   9.672
   89        0.356   6.239   3.057   9.652
   90        0.358   6.239   3.061   9.658
   91        0.359   6.242   3.078   9.680
   92        0.354   6.233   3.055   9.643
   93        0.354   6.236   3.047   9.637
   94        0.362   6.237   3.106   9.705
   95        0.358   6.249   3.040   9.647
   96        0.359   6.233   3.080   9.672
   97        0.353   6.236   3.038   9.627
   98        0.355   6.234   3.045   9.634
   99        0.359   6.244   3.074   9.678
  100        0.357   6.233   3.067   9.657
  101        0.356   6.229   3.062   9.647
  102        0.361   6.240   3.084   9.685
  103        0.361   6.236   3.097   9.694
  104        0.358   6.223   3.104   9.684
  105        0.375   6.230   3.147   9.752
  106        0.361   6.244   3.067   9.673
  107        0.359   6.244   3.058   9.662
  108        0.358   6.238   3.077   9.673
  109        0.345   6.205   3.009   9.560
  110        0.347   6.211   3.020   9.578
  111        0.362   6.231   3.115   9.708
  112        0.357   6.235   3.081   9.673
  113        0.360   6.237   3.096   9.694
  114        0.372   6.247   3.093   9.713
  115        0.417   6.340   4.147  10.905
  116        0.426   6.320   4.250  10.996
  117        0.424   6.316   4.243  10.983
  118        0.428   6.318   4.267  11.014
  119        0.427   6.321   4.249  10.997
  120        0.360   6.276   2.125   8.760
  121        0.356   6.272   2.120   8.749
  122        0.357   6.278   2.110   8.745
  123        0.371   6.300   2.158   8.828
  124        0.356   6.282   2.092   8.729
--------------------------------------------------
tot         44.836 773.705 382.4631201.004
 

 total amount of memory used by VASP MPI-rank0  6702056. kBytes
=======================================================================

   base      :      30000. kBytes
   nonl-proj :     799080. kBytes
   fftplans  :      67629. kBytes
   grid      :     159195. kBytes
   one-center:       1928. kBytes
   wavefun   :    5644224. kBytes
 
  
  
 General timing and accounting informations for this job:
 ========================================================
  
                  Total CPU time used (sec):     4514.262
                            User time (sec):     3962.406
                          System time (sec):      551.856
                         Elapsed time (sec):     4506.758
  
                   Maximum memory used (kb):    11207484.
                   Average memory used (kb):          N/A
  
                          Minor page faults:      1584618
                          Major page faults:           11
                 Voluntary context switches:       307197
