124
Lattice="-7.32060916410201 7.319337295524605 7.321789780937772 7.317974618296534 -7.320027788227948 7.31984589126559 7.32234188632238 7.321760647421058 -7.322480236857273" Properties=species:S:1:pos:R:3:energies:R:1:forces:R:3 energy=-1099.620279626159 free_energy=-1099.620279626159 stress="-0.00198082608115639 -0.00018220032170675695 7.366134518738327e-05 -0.00018220032170675695 -0.0020507901102693837 0.00011808779319661509 7.366134518738327e-05 0.00011808779319661509 -0.0025356353585424944" pbc="T T T"
Cr       1.44761301       1.46169654      -1.46988545      -7.34220368      -0.00111405      -0.00073852      -0.00113452
Cr       0.02196884       2.89608532       2.91327111      -7.41780240      -0.00013204      -0.00040751      -0.00081199
Cr      -1.46951748       4.38434287       4.42097626      -7.37483233       0.00035002       0.00101727      -0.00072399
Cr       2.93307011       8.76795557       2.93928321      -7.31574625       0.00106410      -0.00047539       0.00046351
Ti       5.86213904      -2.91219774       2.93212913      -7.99233160      -0.00009753       0.00082232      -0.00034685
Ti       8.78033928      -0.00135042       0.00384002      -7.94567773      -0.00289479       0.00296666       0.00285137
Ti       2.93070778       5.86628414      -2.92707935      -7.93263584      -0.00090438      -0.00087570      -0.00076607
Ti       7.32574611       1.48011516       1.47464662      -7.92976855      -0.00095948       0.00113482       0.00163516
Ti       0.01007485       5.85883468      -0.01746446      -7.96634407      -0.00084317      -0.00081688      -0.00104472
Ti       5.84889932       2.88287752       2.93266511      -7.84171984       0.00008004      -0.00099595      -0.00028180
Ti       2.91178960      -2.93863059       8.77915138      -7.96320007      -0.00011575       0.00099203       0.00132991
Ti       0.00864957       5.84552908       2.90871522      -8.33902350      -0.00130387      -0.00053173      -0.00007781
Ti       0.02387143       2.90337538       5.86277369      -8.31030206       0.00186261       0.00252296      -0.00198964
Ti       1.46721698       4.37771150       4.40667201      -8.33248254       0.00007143       0.00141248      -0.00090468
Ti      -4.40619206       4.39155308       7.32501044      -8.50305312       0.00377624      -0.00090389       0.00309629
Ti       0.00764016       8.79566583       2.92657408      -8.12167880       0.00017589       0.00012869       0.00095884
V       -0.00280116       0.00800066       0.00558095      -9.08742705      -0.00072245      -0.00159759       0.00005865
V        2.92248268       2.93655379      -2.93230949      -9.02883324      -0.00123162      -0.00024447      -0.00178504
V        4.38564517       4.39820127      -4.39241550      -8.94108427       0.00015391       0.00022878      -0.00000505
V        5.85447986       5.85754287      -5.85583656      -8.96332846       0.00051682      -0.00027238       0.00068973
V        1.45712247      -1.45679346       1.46914205      -9.03265496       0.00096322      -0.00052524       0.00105076
V        2.91365662       0.01138379       0.00698039      -9.02084567      -0.00049506      -0.00053573       0.00001642
V        4.39138188       1.46389854      -1.46698917      -9.13487019      -0.00192164      -0.00123334      -0.00139759
V        5.85222471       2.95480599      -2.93583308      -8.93644392      -0.00044371      -0.00111157      -0.00070361
V        7.32268296       4.39052923      -4.39969275      -8.98037797      -0.00008764       0.00057515       0.00079722
V        2.92706199      -2.92021182       2.93153398      -9.04682953       0.00014187       0.00109545       0.00075526
V        4.38655436      -1.45782365       1.47287760      -8.94086624       0.00111956       0.00103961       0.00131129
V        5.86116855       0.00694135       0.03213018      -9.03395152      -0.00025234       0.00099124       0.00000601
V        7.30162330       1.46322658      -1.48283496      -9.04351630      -0.00045851       0.00091235      -0.00015774
V        8.78794224       2.95083121      -2.90974245      -9.05181063      -0.00050005       0.00201435       0.00079599
V        4.40155590      -4.37768143       4.40326354      -9.02097125      -0.00035863       0.00146921      -0.00051001
V        7.32025697      -1.45064471       1.47860751      -8.94986837      -0.00100450       0.00074061       0.00106204
V       10.25640871       1.46023707      -1.46069506      -9.11355690      -0.00390992       0.00364653       0.00340144
V        5.84731375      -5.86720618       5.84848831      -9.11304811      -0.00079897      -0.00137795      -0.00138311
V        7.31968125      -4.38028607       4.39147638      -9.05493604      -0.00162269      -0.00009810      -0.00191069
V        8.78784600      -2.91609983       2.92503647      -8.97867479      -0.00052753       0.00058257      -0.00075486
V       10.25539112      -1.46154695       1.47228157      -8.91666593      -0.00064551       0.00077137       0.00114381
V       11.70895918       0.00227490       0.01070408      -8.89102651      -0.00039230       0.00008226       0.00234950
V       -1.46100940       1.45869965       1.46900269      -9.14488426      -0.00077708       0.00003348      -0.00030402
V       -0.00463560       2.92224209      -0.01913748      -9.16734046      -0.00221793      -0.00074690      -0.00119481
V        1.47288466       4.40079358      -1.47852024      -9.07687811      -0.00285477      -0.00147262      -0.00311958
V        4.39306462       7.31840105      -4.38796098      -8.99740717       0.00036307      -0.00060951      -0.00010682
V       -0.00450271      -0.01955673       2.92406101      -9.06105934      -0.00042477      -0.00014312      -0.00092508
V        1.46308376       1.45533383       1.47008632      -9.17619894      -0.00201628      -0.00165060      -0.00174323
V        2.93505822       2.93356688      -0.00196800      -9.13820329      -0.00409563      -0.00259884      -0.00365665
V        4.38878775       4.40155010      -1.47807410      -8.95987969      -0.00046504      -0.00039122      -0.00248039
V        5.85299551       5.85602236      -2.93824159      -8.92000619       0.00011944       0.00016255      -0.00090738
V        1.46646244      -1.46384772       4.39664733      -8.93159519       0.00066800       0.00120125      -0.00160627
V        2.92755604      -0.00497242       2.93296790      -9.02917452      -0.00050054       0.00062089      -0.00083844
V        4.39709411       1.47069222       1.47087986      -8.95731871       0.00046948       0.00069439       0.00037446
V        5.86038923       2.94164937       0.01982247      -8.95935816      -0.00091295       0.00128089      -0.00042063
V        7.32640303       4.39533143      -1.47259611      -8.95748952      -0.00068639       0.00137095      -0.00062668
V        2.92639855      -2.92406113       5.86109624      -8.97450406       0.00090809       0.00093197      -0.00088390
V        4.38929870      -1.45791084       4.39620492      -8.94327502       0.00046960       0.00040596      -0.00060244
V        5.86163991       0.00156394       2.93216915      -8.93273038       0.00005117       0.00008906       0.00081566
V        8.77264622       2.93224192       0.01230379      -8.95953380       0.00154377       0.00046405       0.00017433
V        4.38444773      -4.38901894       7.32163947      -9.01084001      -0.00137735       0.00183722       0.00146907
V        5.85047740      -2.91869813       5.84880377      -8.96937209      -0.00126794      -0.00028020      -0.00023846
V        7.32500753      -1.45796157       4.39781717      -8.92357874      -0.00093374      -0.00085921      -0.00066748
V        8.78974639       0.00399115       2.92147579      -9.02439222       0.00031739      -0.00064458       0.00096478
V       10.24396956       1.46756338       1.46517064      -8.93032855       0.00100863      -0.00021765       0.00089564
V       -2.93824017       2.92171859       2.92380038      -9.24851224       0.00092876      -0.00100114       0.00021689
V       -1.46931407       4.37726130       1.44677044      -9.18264757      -0.00070229       0.00006063      -0.00005784
V        1.47132985       7.31691019      -1.47681614      -9.20340217       0.00000173      -0.00163211      -0.00036918
V        2.92979003       8.78268225      -2.92419927      -9.44303552       0.00233420      -0.00223288       0.00144026
V       -1.46212008       1.46630236       4.38769410      -9.19867375       0.00109103       0.00072184      -0.00122323
V        1.46984195       4.37388517       1.45352229      -9.13186749      -0.00255675      -0.00045688      -0.00068892
V        2.94128851       5.86035748      -0.00189686      -8.98269790       0.00046397      -0.00193773      -0.00009598
V        4.38783404       7.32444071      -1.47489089      -8.99752928       0.00154458      -0.00166630      -0.00136908
V        0.00621606       0.00533625       5.85162489      -8.95042399       0.00076803       0.00059258      -0.00323125
V        1.46391873       1.45747198       4.38624109      -9.10179293      -0.00025384      -0.00022860      -0.00139896
V        2.95460343       2.93741597       2.93109467      -9.08080501      -0.00018672       0.00115929      -0.00079032
V        4.43684351       4.42153139       1.49298569      -8.77667249      -0.00193418      -0.00364406      -0.00272573
V        5.85964794       5.85701462      -0.06106140      -8.77564877       0.00132683      -0.00042038      -0.00313943
V        1.45693502      -1.46894853       7.32430924      -8.93363236       0.00012873       0.00038808      -0.00059820
V        2.93257894       0.00171891       5.85454831      -8.96988443       0.00184979       0.00153562      -0.00197001
V        4.39997784       1.46196644       4.39347253      -8.94873371       0.00124868       0.00141798      -0.00058198
V        7.27489852       4.43358052       1.51233305      -8.74749459      -0.00350066       0.00443538       0.00353224
V        4.38549449      -1.46454021       7.31773912      -8.91803033       0.00007108      -0.00000352      -0.00077412
V        5.84997323       0.01229038       5.85259209      -9.02994871       0.00049413      -0.00090785       0.00082830
V        7.32485551       1.46676386       4.39032609      -9.39420122       0.00017658      -0.00124575       0.00034927
V        8.76924299       2.93246142       2.91768385      -9.23684638       0.00112895       0.00066608       0.00112092
V       -4.40393634       4.37524513       4.39557381      -9.47948929       0.00244044      -0.00122714       0.00155197
V       -2.93095215       5.86846898       2.92667728      -9.18525542       0.00006256      -0.00060479       0.00020058
V       -1.46674604       7.32596246       1.42985278      -9.02317658      -0.00052817      -0.00072615       0.00074997
V        0.00562461       8.78354664      -0.00821568      -9.41660393       0.00136106      -0.00233892       0.00279255
V       -2.93525889       2.91697907       5.86300168      -9.31750525       0.00207657      -0.00016099       0.00007244
V        1.46391833       7.30631438       1.43215972      -9.12835582       0.00005924      -0.00127327       0.00125559
V        2.93047208       8.78283260      -0.00197760      -9.53718382       0.00069624      -0.00023581       0.00025901
V       -1.46669192       1.45923807       7.31988869      -9.06125488       0.00137070      -0.00014485      -0.00047705
V        2.87871622       5.85111372       2.93083468      -8.98449981      -0.00240946       0.00027959       0.00093600
V        4.45492043       7.27319957       1.49679953      -8.84564154       0.00369221      -0.00321014       0.00339879
V       -0.03464626      -0.03675223       8.80795771      -8.78866966       0.00513237       0.00328777      -0.00658351
V        1.45505219       1.46623765       7.31440829      -8.94652812       0.00296782       0.00424232      -0.00435975
V        2.93612871       2.93458759       5.85107964      -9.01233901      -0.00072174      -0.00001684       0.00115439
V        4.43866133       4.42483971       4.35182195      -8.71202808       0.00239819       0.00220237      -0.00204888
V        1.51867671      -1.47110389      10.23681634      -8.86426339       0.00298397      -0.00258505      -0.00184701
V        2.92407336       0.00817139       8.76637940      -8.90695858       0.00135588       0.00021301      -0.00050856
V        4.38903439       1.46885903       7.31476808      -8.95393058       0.00008850      -0.00053018       0.00095595
V        5.84517912       2.93398554       5.84753182      -9.20100474       0.00076735       0.00020808       0.00104434
V        7.29843645       4.40288167       4.37503529      -9.18920041       0.00493058      -0.00685431       0.00504922
V       -5.88090235       5.85896700       5.84575178      -9.32615812      -0.00021770      -0.00131142      -0.00064815
V       -4.41571182       7.32959132       4.39108621      -9.07589989      -0.00000315      -0.00132053      -0.00108714
V       -2.90981587       8.77814114       2.93700320      -9.02722373      -0.00002876       0.00070959      -0.00021372
V       -1.47034592      10.25670664       1.45128883      -9.00395958       0.00063015      -0.00102674       0.00191232
V        0.00034355      11.70745992       0.00346872      -9.34397499       0.00138083      -0.00119115       0.00305716
V       -2.93824090       5.87883646       5.86179493      -9.21479370       0.00069908       0.00009267       0.00147791
V        1.45245348      10.26549289       1.45171816      -9.29081495       0.00072193       0.00031250       0.00250007
V       -2.92258479       2.93809553       8.78136237      -9.09960095       0.00185652       0.00082693       0.00171035
V       -1.46177306       4.38582176       7.33459932      -9.09243136       0.00095258       0.00126061       0.00006657
V        0.00231681       5.86924489       5.87824325      -9.20267160      -0.00055576       0.00178476       0.00146635
V        1.47956159       7.29238526       4.42692769      -9.09274612      -0.00239388       0.00058133       0.00001910
V       -1.46655859       1.51901777      10.24427494      -8.88672000      -0.00091230       0.00183063      -0.00142029
V        0.00393770       2.93608599       8.77558698      -8.88614560      -0.00016770       0.00251307      -0.00035756
V        1.46434713       4.39218291       7.31727073      -8.99305204      -0.00089768       0.00147841       0.00184746
V        2.93804982       5.84325848       5.85145816      -9.01186943      -0.00066936       0.00015066       0.00034029
V        4.44506338       7.28049858       4.36557837      -8.87542288      -0.00471561       0.00344729       0.00359784
V       -0.05544090      -0.05359814      11.66713322      -8.86608766      -0.00585606      -0.00617717      -0.00492133
V        1.45188233       1.46059308      10.23850692      -9.06065480      -0.00066939      -0.00058721      -0.00122662
V        2.94012344       2.92633733       8.78200978      -8.97047530       0.00132015       0.00211850      -0.00068083
V        4.39147255       4.38666958       7.33144312      -8.94438069       0.00071179       0.00051636       0.00114730
V        5.85097639       5.84549065       5.91533212      -8.87215925      -0.00085105      -0.00135370       0.00420376
W        1.44977014      10.24605299      -1.48361567      -6.61522759       0.00317117      -0.00284223       0.00349599
Zr      -1.48679230       7.30132273       4.42495692      -8.00570104      -0.00057859       0.00017889       0.00018840
