124
Lattice="-7.334698984912011 7.327326602869729 7.330561733762222 7.332652321213073 -7.332808832545034 7.3339977034273796 7.33118444310953 7.329295232443135 -7.3360444405480525" Properties=species:S:1:pos:R:3:energies:R:1:forces:R:3 energy=-1118.843780009202 free_energy=-1118.843780009202 stress="-0.0038922856452906613 -0.0001007204905524478 0.0001505383785422994 -0.0001007204905524478 -0.00438472855700084 0.0001470761984818042 0.0001505383785422994 0.0001470761984818042 -0.004369308177037621" pbc="T T T"
Cr       2.93879723      -2.95019843       2.93487293      -7.28849642       0.00157162      -0.00052221       0.00219493
Cr       2.93927082       8.78132040      -2.92744325      -7.44975602       0.00041726       0.00148590      -0.00236318
Cr       4.39561375       7.34526880      -1.49858911      -7.45431287       0.00147988       0.00176115      -0.00300690
Cr       5.89222245       2.90766104       2.96111067      -7.73563922      -0.00051372       0.00138861       0.00235250
Cr       1.41877598       4.39501940       4.36492990      -8.27423338       0.00053229       0.00132266       0.00154576
Cr      -4.39894985       7.33583573       4.39202666      -7.52392921       0.00022382      -0.00077394       0.00022566
Ti       2.87707111       0.07907061       0.08053854      -8.28341327      -0.00197373       0.00035713       0.00204331
Ti       4.43038433      -4.38253036       7.33850087      -7.88715204       0.00009729       0.00298071      -0.00112403
Ti       4.37344180       4.39430349       1.44773239      -9.15663740       0.00288102       0.00125904       0.00132640
Ti       1.46472182      10.23052056       1.45523174      -8.11485132       0.00192588      -0.00093831       0.00116748
Ti       4.38360087       7.32680636       4.37980458      -7.98436080       0.00002577       0.00063057       0.00094911
V        0.02576368       0.01943747       0.02969620      -8.86539557      -0.00291719      -0.00184006      -0.00112778
V        1.45898435       1.48355425      -1.53112660      -9.13096065       0.00011382       0.00195638       0.00298546
V        2.93754266       2.94175329      -2.94757482      -9.55608341       0.00049057       0.00198465       0.00043309
V        4.39881015       4.39624353      -4.40422816      -9.10971181       0.00165483       0.00243210      -0.00117213
V        5.86587602       5.87311574      -5.84231085      -8.96051472      -0.00107818      -0.00181718       0.00141806
V        1.47032640      -1.53271325       1.48073783      -8.83666712      -0.00089377       0.00118189       0.00186118
V        4.40121132       1.47589952      -1.48193718      -9.54086667       0.00166446       0.00076681      -0.00338016
V        5.86047614       2.93148109      -2.95840586      -9.27924156      -0.00023750       0.00019859       0.00081897
V        7.32104355       4.39048766      -4.40204275      -9.03285587      -0.00165069       0.00283353       0.00173229
V        4.39924708      -1.47378696       1.48072577      -9.05267866       0.00044307      -0.00234484      -0.00097299
V        5.86066250      -0.02006530      -0.00044944      -9.33006803       0.00077652      -0.00318717      -0.00264331
V        7.33204468       1.46901130      -1.47999138      -9.45943418      -0.00043352       0.00080542       0.00154240
V        8.78966859       2.92500597      -2.95527218      -9.11031116       0.00139459       0.00025589      -0.00139136
V        4.41872172      -4.39827210       4.40507982      -9.04757521       0.00179793      -0.00252274       0.00305152
V        5.88044734      -2.93092150       2.93898129      -9.18332462      -0.00137686       0.00100407       0.00050739
V        7.33583765      -1.47362386       1.47580085      -9.35384186      -0.00013424       0.00017394       0.00090344
V        8.79045883      -0.02591334       0.00088623      -9.33129559       0.00126041      -0.00105027      -0.00038469
V       10.24741405       1.47931818      -1.46063718      -9.04295848       0.00161414      -0.00056476       0.00016803
V        5.88414990      -5.84002627       5.87038281      -8.99839711      -0.00080467       0.00088652      -0.00250456
V        7.33437190      -4.39177314       4.39387963      -9.40892219      -0.00175602       0.00114798       0.00128187
V        8.79350894      -2.91143074       2.94994808      -9.49038823       0.00065271      -0.00135480      -0.00008446
V       10.25475588      -1.47868862       1.47859865      -9.40951193       0.00165086       0.00136080       0.00016174
V       11.73004655      -0.00632742      -0.00165776      -9.02352159       0.00068428      -0.00114754      -0.00160080
V       -1.51598933       1.47204631       1.46231354      -8.78570439       0.00056002      -0.00086101       0.00226294
V        0.04943205       2.89328443       0.04195273      -8.90570734       0.00056363      -0.00131641      -0.00171426
V        1.46080730       4.39335939      -1.45808703      -9.06128678      -0.00065413       0.00294869      -0.00280557
V        2.94008681       5.85833254      -2.93619125      -9.14915034       0.00005973      -0.00151723       0.00168467
V        4.38799466       7.32737970      -4.39719722      -9.14709795       0.00299113       0.00099432       0.00054568
V        0.05044482       0.04443004       2.88150412      -8.93976721       0.00166418      -0.00062456      -0.00332976
V        2.88112088       2.91129699      -0.01166364      -9.37412093      -0.00146287       0.00413398      -0.00121030
V        4.40160730       4.39362624      -1.48362461      -9.47343563      -0.00249874      -0.00082692       0.00111066
V        5.86887088       5.87446877      -2.94326809      -9.15896208       0.00373153       0.00434046      -0.00466352
V        1.47378350      -1.45230599       4.38515126      -9.05907222      -0.00054966      -0.00220079       0.00235079
V        2.92131000       0.00270108       2.91529561      -9.22748793       0.00081037      -0.00076168       0.00383626
V        4.45659347       1.44436719       1.44789736      -9.69458907      -0.00283028      -0.00131378       0.00349132
V        7.33740284       4.39535068      -1.48358000      -9.49923462       0.00393197       0.00250648      -0.00246060
V        2.94220721      -2.92556005       5.86582592      -9.10001571      -0.00064049       0.00037043      -0.00098967
V        4.39753287      -1.47188575       4.40118736      -9.06141553      -0.00167735       0.00124576      -0.00095340
V        5.86721926      -0.01985151       2.93967397      -9.23612287      -0.00008194      -0.00229690       0.00078729
V        7.36366821       1.43680650       1.44109851      -9.53688336       0.00118253       0.00311583      -0.00051076
V        5.88173246      -2.93134185       5.87078147      -8.97698314       0.00491381      -0.00377372       0.00437127
V        7.33113181      -1.47634348       4.40784937      -8.97866304       0.00109806      -0.00154795       0.00250220
V        8.79194959      -0.01195043       2.93849615      -9.20920484       0.00062706      -0.00077040       0.00191961
V       10.25632986       1.45699683       1.46416789      -9.11024981      -0.00089379       0.00111189      -0.00027452
V       -2.93935780       2.94057788       2.93813883      -9.15351083       0.00089768       0.00135628       0.00091139
V       -1.45202773       4.39572147       1.47259153      -9.40662843      -0.00172775       0.00164832      -0.00036793
V       -0.00188493       5.86571361      -0.01552693      -9.21640967      -0.00234918      -0.00052847      -0.00089270
V        1.46537447       7.32750242      -1.47329573      -9.15508681      -0.00026512      -0.00046826       0.00019219
V       -1.45082957       1.46845911       4.39169277      -9.20146684      -0.00228217       0.00023465       0.00171069
V       -0.01797554       2.86565013       2.87580750      -9.40137707      -0.00159280       0.00070070       0.00127684
V        1.45737124       4.45576731       1.46944388      -9.71125192       0.00072033      -0.00279613      -0.00199612
V        2.92945067       5.86892315      -0.01860623      -9.25909248       0.00175145      -0.00099761      -0.00121101
V        0.00761353      -0.00501518       5.86428324      -9.01433790      -0.00188235      -0.00184343      -0.00156837
V        1.45890794       1.46076466       4.45677536      -9.36523146       0.00103738      -0.00017456      -0.00444443
V        5.87905649       5.89029451      -0.02460097      -9.33147375      -0.00144526      -0.00089951      -0.00050242
V        1.47189101      -1.44698223       7.33059881      -9.07115990       0.00121349       0.00046165      -0.00029532
V        2.94116209      -0.00728223       5.87260152      -9.03395161       0.00169729      -0.00265390      -0.00031520
V        4.37526846       1.43507209       4.41994917      -9.48453307       0.00315436      -0.00006117       0.00222875
V        7.35720671       4.40852381       1.44124812      -9.47228834      -0.00125644      -0.00093391       0.00086372
V        2.94030578      -2.92290047       8.79660001      -9.05488782       0.00057572      -0.00148857       0.00132008
V        4.41233476      -1.46367746       7.33128271      -8.99829113       0.00152565      -0.00257767       0.00123036
V        5.86673419      -0.00869531       5.86824360      -8.98391352      -0.00078948      -0.00079391      -0.00102183
V        7.33898583       1.43602490       4.42661900      -9.11294105      -0.00165019       0.00012087      -0.00120956
V        8.80482523       2.92852043       2.95612178      -9.24881116      -0.00073179       0.00112398       0.00204610
V       -4.39171498       4.40521466       4.40107134      -9.18476137      -0.00013340       0.00187371       0.00191941
V       -2.94441416       5.86255798       2.92079793      -9.38404717       0.00110281      -0.00235241      -0.00097402
V       -1.46948722       7.32634535       1.46289609      -9.42400623       0.00059528      -0.00028997      -0.00016098
V       -0.00088559       8.79150962       0.01129907      -9.04875953      -0.00062382      -0.00042098      -0.00215547
V        1.46451516      10.25040950      -1.46389559      -9.12999269       0.00067920       0.00116819       0.00164577
V       -2.93655013       2.92870617       5.86186910      -9.17126057       0.00019489       0.00022759      -0.00197630
V       -1.46423899       4.39549622       4.39776692      -9.65361655      -0.00073914      -0.00228437      -0.00228879
V        1.45974041       7.33220854       1.46926526      -9.47429737      -0.00178196       0.00153122      -0.00026026
V        2.92797125       8.79840535       0.00034406      -9.20752538       0.00086199       0.00028516      -0.00101880
V       -1.46532481       1.46511287       7.33198323      -9.21634288       0.00124536       0.00083685      -0.00023552
V       -0.02342186       2.91701156       5.89245180      -9.57948157      -0.00287923      -0.00123219      -0.00028235
V        2.93539337       5.89145422       2.89867419      -9.57034075       0.00252785      -0.00074609       0.00064229
V        4.39684821       7.34225413       1.45929977      -9.04422595      -0.00149647      -0.00163281       0.00019687
V        0.00372103       0.00347443       8.79486999      -9.47855843      -0.00044947      -0.00054627      -0.00025023
V        1.46242827       1.45517945       7.32773612      -9.55786353       0.00010844      -0.00161464       0.00050722
V        2.93746483       2.90787865       5.90139278      -9.71349295       0.00298425      -0.00062070      -0.00075127
V        4.36137571       4.39712260       4.41410519      -9.65510754      -0.00396605      -0.00388717      -0.00493563
V        5.87925291       5.86041067       2.91243808      -9.23902261      -0.00289007      -0.00272199      -0.00053672
V        1.46819103      -1.47647745      10.25167893      -9.35322702      -0.00033677       0.00025369       0.00076441
V        2.93562353       0.00192369       8.79766846      -9.47158206       0.00124658      -0.00123132       0.00056138
V        4.39844256       1.45258512       7.34179390      -9.05185506      -0.00053664      -0.00001359      -0.00136606
V        5.85573217       2.90501329       5.86993241      -9.13226703      -0.00216823      -0.00044464      -0.00251195
V        7.34713406       4.41220173       4.42712576      -9.16475100       0.00170089       0.00150334       0.00212571
V       -5.86156606       5.86735451       5.87047974      -9.10630493       0.00049748      -0.00062449      -0.00197486
V       -2.92368486       8.79678190       2.92375641      -9.37237344      -0.00138182       0.00136067       0.00060120
V       -1.47375883      10.24671229       1.46447565      -8.90971787       0.00139023       0.00037842      -0.00008301
V       -0.00426231      11.71056010       0.00350591      -9.02318654      -0.00089454       0.00063903      -0.00126296
V       -4.39613988       4.38996343       7.33485580      -9.10573638       0.00184423       0.00277985      -0.00077026
V       -2.93696359       5.86958322       5.86762491      -9.09945120      -0.00528550       0.00445951       0.00647166
V       -1.46552892       7.32267683       4.39442490      -9.62417655      -0.00296410       0.00116054       0.00173394
V       -0.01405572       8.80469451       2.92335336      -9.26252040      -0.00055546      -0.00012135       0.00149899
V       -2.92657405       2.93374400       8.80206103      -9.08460427      -0.00082607       0.00091210       0.00065588
V       -1.47242126       4.39447141       7.32990401      -9.32518564      -0.00242495       0.00198512       0.00134090
V       -0.03592146       5.87700469       5.89716733      -9.69154239      -0.00185041       0.00053584      -0.00045763
V        1.44685421       7.32240284       4.39096160      -9.57382303      -0.00066445      -0.00047788      -0.00172640
V        2.92414818       8.80320930       2.91634714      -9.11181819       0.00128500      -0.00099792       0.00075532
V       -1.46477942       1.47535375      10.25089470      -9.25208187       0.00041115       0.00038286       0.00097188
V        0.00072845       2.92362641       8.80608944      -9.78197904      -0.00006598       0.00159787       0.00002490
V        2.92923761       5.87501000       5.89268664      -9.49440980       0.00125592      -0.00122839      -0.00276625
V       -0.00399677       0.00249581      11.72243562      -9.50570703      -0.00118992      -0.00101050       0.00008611
V        2.93077049       2.92978289       8.80716715      -9.83384842       0.00189360       0.00090678      -0.00084591
V        4.39702261       4.39112615       7.34042694      -9.28727935       0.00177336       0.00170258       0.00132344
W        5.88354787       2.92236901      -0.03350753      -6.70607435       0.00024881       0.00034965      -0.00106272
W        2.86790892       2.81908059       2.86292665      -7.20849267      -0.00329399      -0.00176519      -0.00373187
W       -0.03730568       5.88906984       2.91331106      -6.82571653       0.00034336      -0.00064723      -0.00077695
W        1.45638607       4.38956578       7.35961526      -6.86662853      -0.00065021      -0.00101585      -0.00112926
W        1.45923955       1.47558547      10.23816543      -6.87005700       0.00050735       0.00016103       0.00218508
Zr       8.78593212       2.92945344      -0.01188534      -8.06329782       0.00016766      -0.00026402       0.00067053
Zr       5.88899603       5.84867708       5.89249631      -7.88227383      -0.00184553      -0.00129604      -0.00121030
