124
Lattice="-7.542928046 7.540699198 7.540388523 7.547476001 -7.553831611 7.558065225 7.537725071 7.548625092 -7.553522243" Properties=species:S:1:pos:R:3:forces:R:3 stress="0.0029384900134475866 0.0005959143253028299 0.0004841601044038902 0.0005959143253028299 0.002543783217835855 0.000623445622057101 0.0004841601044038902 0.000623445622057101 0.0032309983386321055" free_energy=-1122.69640452 energy=-1122.68954567 pbc="T T T"
Cr       3.06283000      -2.99295000       3.03490000      -0.00007500       0.00012200       0.00006300
Cr       3.02841000       9.04099000      -2.98879000      -0.00016200      -0.00006900      -0.00005600
Cr       4.50381000       7.58408000      -1.53839000       0.00007600       0.00007200      -0.00013900
Cr       6.02612000       2.93780000       3.04186000      -0.00018200      -0.00064400      -0.00069300
Cr       1.47473000       4.51206000       4.52741000       0.00022700       0.00027900      -0.00063600
Cr      -4.50484000       7.56964000       4.56494000      -0.00007300      -0.00028400       0.00037700
Ti      -4.48787000       7.45047000       7.59116000      -0.00016500       0.00082700      -0.00002600
Ti       4.57736000      -4.54553000       7.54717000      -0.00015700       0.00081100      -0.00008100
Ti       4.36250000       4.40581000       1.32830000       0.00019200      -0.00044600      -0.00146400
Ti       1.55032000      10.57438000       1.51724000      -0.00038300       0.00040100       0.00019300
Ti       4.49870000       7.55202000       4.39281000       0.00008600      -0.00048100      -0.00054800
V        0.16840000       0.11159000       0.07058000      -0.00134000      -0.00010600       0.00094800
V        1.62286000       1.64122000      -1.46913000      -0.00052000      -0.00027100      -0.00007700
V        3.05686000       3.05724000      12.01896000      -0.00040100      -0.00008800       0.00059000
V        4.52663000       4.53606000      -4.49889000      -0.00003700      -0.00020200      -0.00018500
V        6.03450000       6.03233000      -5.97788000       0.00022400       0.00067600      -0.00023600
V        1.51917000      13.50598000       1.56529000      -0.00005600       0.00018700       0.00005300
V        4.47254000       1.55021000      -1.53593000       0.00035300       0.00043200       0.00021700
V       -1.52221000      10.56053000       4.47919000       0.00008600      -0.00047000      -0.00024500
V        7.49904000       4.55379000      -4.51432000       0.00013400      -0.00057000      -0.00015500
V       -3.00454000       5.95554000       9.12370000      -0.00010500       0.00034300       0.00083300
V       -1.53727000       7.49860000       7.56259000       0.00119200       0.00054200       0.00043300
V       -0.07150000       8.99032000       5.97014000       0.00092200      -0.00023400      -0.00040000
V        1.51887000      10.61014000       4.45278000       0.00047700      -0.00018200      -0.00039700
V       -3.02133000       3.04049000      12.03569000      -0.00066600      -0.00035300       0.00011000
V       -1.48189000       4.50348000      10.55153000      -0.00002300      -0.00052000       0.00019700
V        7.52927000      -1.51983000       1.54147000       0.00025900      -0.00030100       0.00012400
V        1.47117000       7.51133000       7.56345000       0.00078500       0.00022200       0.00034000
V        2.95473000       8.95063000       5.94302000       0.00082200      -0.00042400      -0.00028200
V        6.19289000      -5.99460000       6.00581000      -0.00077400      -0.00060400       0.00020400
V        7.58793000      -4.48793000       4.54868000      -0.00041000      -0.00088400       0.00080500
V        9.05582000      -2.99163000       3.07968000      -0.00023600      -0.00064600      -0.00045600
V       10.56131000      -1.52526000       1.56005000       0.00001500       0.00040800      -0.00049500
V       11.97543000       0.06820000       0.10422000       0.00024300       0.00030300       0.00001800
V       -1.45713000       1.47110000       1.57201000      -0.00063700       0.00069400       0.00063100
V        7.47621000      -4.51037000       7.56540000       0.00009200      -0.00029800      -0.00022300
V        1.61094000       4.50855000      -1.43020000       0.00034100      -0.00031600       0.00008200
V        3.03145000       6.05890000      -2.97125000      -0.00022500       0.00044300      -0.00014900
V        4.50746000       7.55489000      -4.49112000       0.00010500       0.00038700       0.00009400
V        7.53502000       7.54386000      -4.51205000       0.00029600      -0.00010600       0.00003700
V        1.51525000       1.60305000       1.50210000      -0.00017600      -0.00024100       0.00020200
V        4.46627000       4.51662000      -1.52034000       0.00010600      -0.00039400      -0.00050000
V        5.98516000       6.08359000      -2.99748000      -0.00012500       0.00011500      -0.00020400
V        1.51547000      -1.50185000       4.50722000       0.00032100      -0.00045900      -0.00008500
V        3.01971000      -0.01027000       3.02125000       0.00006700      -0.00019300       0.00023700
V        4.58605000       1.50993000       1.58477000       0.00082400       0.00012200      -0.00048500
V        7.46646000       4.63311000      -1.59762000       0.00130200      -0.00061800      -0.00052600
V        3.07920000      -2.85990000       5.94773000       0.00016800       0.00036500      -0.00004700
V        4.52037000      -1.53196000       4.51522000      -0.00023400      -0.00063400       0.00076600
V        6.03317000      -0.05386000       3.06077000      -0.00001700      -0.00043500       0.00025000
V        7.47016000       1.44466000       1.61790000       0.00052400      -0.00022500       0.00006100
V        6.09704000      -2.98471000       6.00761000       0.00029600      -0.00027500       0.00027800
V        7.58517000      -1.51805000       4.54702000      -0.00016500      -0.00059400       0.00083500
V        9.06527000      -0.01535000       3.07251000       0.00002200      -0.00014100      -0.00025900
V       10.58361000       1.39018000       1.61970000      -0.00000800       0.00058800       0.00069800
V        4.51228000      10.53968000      -4.49264000      -0.00019600       0.00074900       0.00061400
V       -1.49266000       4.54310000       1.54180000       0.00049400       0.00026900      -0.00002300
V        7.56666000      -1.50233000       7.52973000       0.00023800      -0.00031400       0.00017400
V        9.05461000       0.02552000       6.00108000       0.00034600      -0.00006800       0.00017800
V        5.99888000       9.04647000      -2.98521000      -0.00072900       0.00015800      -0.00007000
V       -0.02588000       3.01531000       3.05345000       0.00024000      -0.00004300       0.00049500
V        1.49758000       4.51865000       1.39533000       0.00005200      -0.00023600      -0.00003000
V        3.01255000       6.23478000      -0.08223000       0.00000700      -0.00037600      -0.00023600
V        0.00550000       0.02097000       6.03456000       0.00000600      -0.00047600       0.00011300
V        1.46532000       1.46299000       4.53865000       0.00041200       0.00054600      -0.00073300
V        5.97556000       6.08595000      -0.07577000      -0.00047300      -0.00056300      -0.00037200
V        1.50821000      -1.44508000       7.54525000       0.00020300       0.00020400      -0.00012000
V        3.01878000       0.00551000       6.04038000       0.00010700      -0.00009200       0.00036000
V        4.56131000       1.46854000       4.54785000      -0.00003700       0.00009000       0.00017000
V        7.42508000       4.55517000       1.59159000       0.00057100      -0.00008400      -0.00067000
V        3.10880000      -2.88538000       9.21025000      -0.00020700       0.00055000       0.00002600
V        4.55086000      -1.50321000       7.56175000      -0.00016300       0.00014700       0.00019000
V        6.04738000      -0.02593000       6.05533000       0.00052800      -0.00034800       0.00058200
V        7.53402000       1.48793000       4.54335000      -0.00026200      -0.00077800       0.00024900
V        9.09759000       2.96279000       3.09630000      -0.00018100      -0.00018200      -0.00010400
V        2.99857000      12.06409000      -3.01370000      -0.00013000       0.00035600       0.00013000
V       -3.04880000       6.06769000       3.04870000      -0.00036200       0.00017200       0.00019700
V        6.02014000       0.00626000       9.03735000       0.00043800       0.00019000       0.00011900
V        7.52725000       1.47689000       7.51575000       0.00021600      -0.00025800      -0.00070200
V        9.07586000       2.97736000       6.00766000       0.00014000       0.00043800       0.00019000
V        4.50399000      10.55479000      -1.54303000      -0.00042000       0.00058300       0.00080700
V       -1.55002000       4.48721000       4.55846000      -0.00037100       0.00062200      -0.00009400
V        1.49067000       7.58233000       1.47428000       0.00030200       0.00052300       0.00015300
V        3.08060000       9.03672000      -0.06404000      -0.00018400       0.00045400      -0.00025100
V        6.00011000       9.04022000      -0.04199000      -0.00042800       0.00031300      -0.00029200
V       -0.01519000       3.00046000       6.01348000      -0.00035100       0.00014700      -0.00039300
V        2.92788000       5.97988000       2.95341000      -0.00025500      -0.00095300      -0.00010800
V        4.52037000       7.53464000       1.48637000      -0.00053000       0.00006300      -0.00006000
V        7.52808000       7.53824000       1.45621000      -0.00004300      -0.00038000      -0.00002200
V        1.49360000       1.46410000       7.52204000      -0.00060200       0.00034600      -0.00015300
V        3.01646000       2.98995000       6.04811000       0.00002400      -0.00021700      -0.00019500
V        4.51983000       4.43010000       4.42008000       0.00009800      -0.00032800       0.00058400
V        6.06694000       5.97939000       2.90151000      -0.00040600      -0.00142600      -0.00130700
V        1.51438000      -1.50705000      10.61011000      -0.00001800      -0.00008000      -0.00004600
V        3.03605000      -0.00938000       9.03298000       0.00005600      -0.00004900      -0.00008500
V        4.53786000       1.48957000       7.54437000       0.00006000       0.00031000       0.00011900
V        6.04049000       2.95719000       6.06616000       0.00097100      -0.00008100       0.00022600
V        7.56619000       4.39190000       4.46246000       0.00021900      -0.00044500      -0.00059600
V        1.55940000      -1.50774000      13.53202000       0.00041500       0.00032200       0.00003400
V       -3.01002000       9.03641000       3.02890000       0.00005700       0.00041500      -0.00024400
V       -1.50635000      10.55273000       1.50459000       0.00034700       0.00023500      -0.00011600
V        0.06006000      12.01972000       0.02063000      -0.00004700       0.00086000      -0.00034100
V       -4.48345000       4.53979000       7.48349000       0.00029900       0.00130400       0.00015600
V       -3.01613000       6.02562000       5.98469000      -0.00002800       0.00045000       0.00081600
V       -1.54030000       7.53656000       4.53196000      -0.00031600       0.00017600       0.00020500
V       -0.04196000       9.04921000       3.02236000      -0.00048700       0.00062800      -0.00059200
V       -3.02005000       3.03352000       9.05092000      -0.00025100       0.00012700       0.00074500
V       -1.54682000       4.50517000       7.54122000      -0.00020000       0.00075300       0.00004600
V       -0.02475000       6.00389000       6.04375000      -0.00000600      -0.00003200      -0.00019400
V        1.48954000       7.54173000       4.52642000       0.00012200       0.00036900      -0.00006500
V        3.00844000       9.05924000       2.99175000      -0.00056800       0.00023900      -0.00055400
V       -1.48383000       1.55351000      10.48623000      -0.00027200       0.00007900      -0.00091800
V       -0.02532000       3.00848000       9.03078000       0.00013200      -0.00036100       0.00026100
V        2.93772000       5.97123000       6.01251000       0.00054400       0.00008900      -0.00040600
V        0.07291000       0.06413000      12.04040000      -0.00065600      -0.00073500       0.00041700
V        3.03739000       2.99845000       9.05435000      -0.00032600       0.00002000      -0.00014800
V        4.50115000       4.43552000       7.64187000       0.00032300       0.00054900      -0.00041000
W        6.05993000       2.97278000      -0.04505000      -0.00011600      -0.00028100       0.00092200
W        2.95445000       2.97913000       3.09266000      -0.00109900      -0.00108100       0.00119800
W       -0.00494000       6.01961000       3.02417000      -0.00036100      -0.00010900       0.00038900
W        1.48613000       4.50121000       7.56059000       0.00015000       0.00044100       0.00125900
W        1.53846000       1.50187000      10.57790000      -0.00074300       0.00091700      -0.00118400
Zr       9.09210000       3.08356000       0.02435000       0.00041900       0.00000300      -0.00010100
Zr       6.04916000       6.03665000       6.09518000       0.00007600      -0.00046300      -0.00081400
