127
Lattice="12.091614014443511 -0.00041071459908877085 0.0006695360618873701 -0.0004106839850753486 12.089532370641614 0.00038327849287979614 0.0006695322856332959 0.0003832328764644084 12.094344108101494" Properties=species:S:1:pos:R:3:forces:R:3 energy=-1141.0378879113068 free_energy=-1141.0378879113068 stress="-0.0031052454918358762 -0.0005559438883097168 0.0026958855269493885 -0.0005559438883097168 -0.002083904280639041 -0.0025253806922148473 0.0026958855269493885 -0.0025253806922148473 -7.130515254093837e-05" pbc="T T T"
Cr      -0.41015108       9.14526418      -0.44811100       0.04046828       0.02627369       0.00071871
Cr       4.21616666       4.66317058       1.07870512       0.02618824       0.00867452       0.01567059
Cr       4.17079432       7.69225838       1.01559688      -0.01793630       0.01360464      -0.02233899
Cr       8.71782904       3.25784686       5.57498330      -0.02691922      -0.00011667      -0.02456220
Ti      -0.20506413       2.94922914       2.86007905       0.22856856      -0.21579859       0.10103354
Ti       1.10420931       7.67777956       4.06338271       0.00839768      -0.00832336       0.02923743
Ti       2.40364136       0.39721495       5.40247839      -0.04831046      -0.00171248      -0.12022277
Ti       2.54144799       3.18509035       5.56102726      -0.00646855      -0.01732990      -0.03910298
Ti       2.63960934       9.37487938       5.57774236       0.03872261       0.00959680       0.05354731
Ti      10.19128123       1.68788171       7.14756657       0.01137806      -0.03230724      -0.04570043
Ti       8.64178417       9.16091026       2.57787058      -0.00112369       0.02018652       0.04098008
V       -0.37135284       0.07760407      -0.34904867       0.00041673       0.05648259       0.00646544
V        1.33504288       1.38577116       1.25626398      -0.01169972       0.09284126      -0.08819754
V        7.92609402       9.86839624       9.45131146       0.05315432       0.00574719       0.01467434
V       -0.37071268       0.20888019       5.55189050       0.00355273      -0.01482569       0.02434169
V        1.03923035       1.66663862       7.32409444      -0.01811885       0.02488734      -0.01765483
V       -0.37982104       0.09517035       8.70574358       0.03989957      -0.01873325      -0.05922707
V        1.12059976       1.62500801      10.25541000       0.03244464      -0.00724014       0.00466936
V       -0.33252291       2.99967106      -0.25318023      -0.01926386       0.01321134      -0.13982857
V        1.29509349       4.50020884       1.21417389      -0.08647446      -0.05763674       0.03975360
V        1.15398120       4.86844742       4.14744782       0.02732906      -0.06202018      -0.03010186
V       -0.27925381       3.11435626       5.65302205      -0.04383339      -0.03577565       0.00520016
V        1.12670594       4.70634750       7.22251292       0.01822504      -0.00363542      -0.02882138
V       -0.35978301       3.18333375       8.75121932       0.01863260      -0.01218626       0.00945710
V        1.23873578       4.56105515      10.14366411       0.04996331       0.01762537       0.01022284
V        1.15872578       7.70611651       1.07491237       0.02067606       0.05082313      -0.01654651
V       -0.42402983       6.04182319       2.61305194       0.04517551       0.08409862       0.01388473
V       -0.33724032       6.07812814       5.64977544      -0.02254323      -0.00114314      -0.02809756
V        1.17194187       7.71269231       7.16462288      -0.01699683      -0.04002993       0.00280851
V       -0.35415771       6.15892628       8.67862874      -0.00248218      -0.03438311       0.00430962
V        1.16188476       7.74253638      10.14196896       0.02439142      -0.02971850      -0.01570921
V       -0.47146311       9.17755474       2.56599406       0.04420304       0.04945140      -0.01535639
V        1.04931247      10.68593379       3.93072060      -0.05668763      -0.09345656       0.10082126
V       -0.35553000       9.29941977       5.58730191      -0.00566493      -0.01354392       0.00801296
V        1.07156029      10.80430651       7.14331237      -0.01190590       0.05438828      -0.03919245
V       -0.30270409       9.16705592       8.62767707      -0.01274474       0.01535520      -0.01939322
V        1.08511096      10.67641865      10.17025771       0.03091226      -0.04495603       0.01829333
V        2.58715878       0.12033303      -0.46155563       0.02811392       0.03335757      -0.02725928
V        4.09913842       1.64019087       1.19015212      -0.04956582      -0.04615155      -0.04630802
V       -0.47286895       0.10833453       2.68228939      -0.04072181      -0.07302151       0.03364924
V        4.28883703       1.69690091       3.95626413       0.00541640      -0.00097347      -0.00796007
V        4.06713825       1.70174588       7.13827022       0.00981057      -0.02053986       0.01026016
V        2.56081621       0.17649896       8.65077988      -0.01959572      -0.00797171      -0.03083661
V        4.07249517       1.71430056      10.17480662       0.04191282       0.00924747       0.00079058
V        2.68291635       3.13819188      -0.33359250      -0.02564820       0.01596129       0.00805729
V        2.71001279       3.22544411       2.65861979      -0.00132837      -0.01060135       0.04149228
V        4.23279145       4.69915282       4.10401812      -0.04945023       0.03780363      -0.02227321
V        4.19250128       4.73501356       7.17209006      -0.05463442       0.00537524       0.00162085
V        2.62403914       3.18939719       8.69257164       0.00303534      -0.03371861      -0.01552507
V        4.14962616       4.71071031      10.16819245       0.04380007      -0.01747514       0.01238494
V        2.73332903       6.17126407      -0.40259442       0.03974181      -0.00632593       0.01241143
V        2.76860056       6.15389189       2.50490861      -0.00652475      -0.05609228      -0.05396550
V        2.71016308       6.20878193       5.69437982      -0.00058550       0.00142748      -0.04315028
V        4.15136848       7.72214054       7.15147772      -0.00420912       0.00004496       0.02051284
V        2.65355739       6.21513016       8.66565362       0.00266222      -0.02267096       0.00620658
V        4.14112434       7.70113821      10.12426292       0.01446373       0.03593818      -0.02334069
V        2.65216816       9.14697911      -0.45148761       0.02406698       0.00590715      -0.01063678
V        4.03184004      10.74132832       1.11230806       0.03808575       0.01711467      -0.00891834
V        2.67245064       9.11814292       2.48539360       0.03859306      -0.00286755       0.00215796
V        4.07646101      10.86221676       3.83744917       0.05438638      -0.00718832       0.02075587
V        4.10760762      10.81420523       7.12486002       0.01799655      -0.01828315       0.05093609
V        2.60729730       9.25002566       8.61126213      -0.00440914      -0.03491660      -0.01269849
V        4.00219894      10.72939493      10.14914626      -0.04366404      -0.03229612       0.01497477
V        5.42510363       0.34270608      -0.23661156       0.01779066      -0.05727813      -0.01659621
V        7.19229611       1.65226654       1.11118151      -0.04368017       0.01337328       0.00980608
V        5.76167139       0.13826377       2.57428647      -0.03001678       0.01834316      -0.00628961
V        7.18553782       1.68005221       4.08026468      -0.05317189       0.02280476       0.03749424
V        5.49093585       0.10335565       5.48285046       0.00273055      -0.01194396      -0.00208126
V        5.43377791       0.18243861       8.57115387       0.02160191      -0.01184321       0.04825216
V        7.11080560       1.76118156      10.23303880      -0.00123179      -0.04733451      -0.00363173
V        5.63805948       3.22969044      -0.37251134      -0.01723377       0.00688005       0.02668204
V        7.20806810       4.64555532       1.12226012       0.01682639       0.02766114       0.02804703
V        5.69024714       3.21011522       2.56398682      -0.03826682      -0.00808068       0.03914787
V        7.23291318       4.65664868       4.13348554      -0.03616525       0.01360235       0.03044232
V        5.59080421       3.27243463       5.54318907       0.00205027      -0.01956266       0.03155073
V        7.18893679       4.71023974       7.11965635      -0.01300460       0.00984187       0.00909404
V        5.57006073       3.27598496       8.73292888       0.01536623      -0.01026229      -0.01626782
V        7.14876436       4.67208417      10.20450354      -0.01290051      -0.00615352       0.00128716
V        5.62701081       6.16662688      -0.39042921       0.03416795       0.00849368      -0.00992164
V        7.14094588       7.61229965       1.03239610      -0.00423661       0.00597570       0.05356573
V        5.70308680       6.18505502       2.55069417      -0.03607008      -0.02499213      -0.01445859
V        7.17070994       7.64188412       4.12108052      -0.00707890      -0.01213690       0.00683156
V        5.69925687       6.20833494       5.62274038      -0.03820653       0.02129142      -0.02065632
V        7.08244546       7.67579216       7.11609290       0.00638401       0.02947109      -0.00788507
V        5.65584251       6.19510210       8.64412186       0.01033976       0.04590062       0.00076738
V        7.15551539       7.55722157      10.13973410      -0.01804664       0.00858411       0.05774936
V        5.60855256       9.13992386      -0.45356107      -0.03667089      -0.05025949       0.08657263
V        7.08472940      10.70840840       1.06026310       0.01083761      -0.00352315      -0.00122959
V        5.64170331       9.19340381       2.51086384       0.02176475      -0.01081463       0.03449329
V        7.10262813      10.71467131       4.09609704      -0.03851263       0.00731042      -0.00339996
V        5.63759746       9.24770205       5.58461246      -0.00600028      -0.00703421      -0.01240085
V        7.09279843      10.66569859       7.06486280       0.08151696       0.00356903       0.00455767
V        5.53792863       9.21988574       8.63506143       0.00806851      -0.01517711       0.02925106
V        6.60960197      11.21290947      10.48229031      -0.00428705      -0.01983825       0.01962665
V        8.66915499       0.06286425      -0.40234712      -0.00438324      -0.01635788       0.04730335
V       10.21011028       1.51727412       1.17948961       0.07506303       0.07448434       0.05564927
V        8.66386083       0.06765897       2.58040592       0.02632277       0.06698561      -0.00239686
V       10.02985950       1.62353461       4.22512770       0.02487544      -0.03997489      -0.05680927
V        8.67489312       0.01838096       5.54669080      -0.06164257       0.01092227       0.00634625
V        8.64971490       0.12364676       8.76135508       0.02338505      -0.08884515       0.04491630
V        8.68800539       3.11208992      -0.32652368      -0.04385933       0.03947188      -0.07104452
V       10.14399986       4.47438043       1.25056949      -0.10645952       0.05985653      -0.12490189
V        8.71478272       3.08466196       2.62681149      -0.06747317       0.07747843      -0.00668518
V       10.16703810       4.58518741       4.21077336       0.03247009      -0.02444274      -0.00371199
V       10.19674430       4.61205847       7.15037778      -0.05251175       0.01341081      -0.00361446
V        8.69812311       3.25475475       8.78268880      -0.01462993       0.03483982       0.01022128
V       10.13570596       4.57464431      10.15825639       0.02669511       0.02382737       0.01145284
V        8.64594680       6.10993128      -0.38874621       0.00419772       0.05013801      -0.03347519
V       10.18306180       7.64468630       1.10134040       0.03779049       0.03725435       0.06741119
V        8.68903703       6.12921490       2.61833891      -0.03538407       0.01947711       0.01069438
V       10.21385433       7.61460552       4.09274194       0.01434263      -0.00015586       0.00473029
V        8.66742253       6.19180174       5.63972135       0.02126903      -0.03562670      -0.03323719
V       10.47153912       7.48638108       6.89260506      -0.02019184       0.00063138       0.04055805
V        8.69599948       6.07611175       8.64888784      -0.04283128       0.05993133      -0.01053232
V       10.16447529       7.71418868      10.23243011       0.01674581       0.02354686      -0.02990697
V        8.61205160       9.15405030      -0.32532562       0.07996174      -0.04530261       0.04383073
V       10.20568780      10.64978438       1.02975080      -0.03557279       0.03860067       0.00673078
V       10.21033513      10.71653624       4.10158290      -0.02372202       0.03855219       0.00060994
V        8.66196674       9.15468941       5.51639327      -0.05688398       0.00770996      -0.05482028
V        9.11698288       8.60677548       8.16966451      -0.12240259      -0.00651569       0.00885019
V       10.29740919      10.60138337      10.20028569      -0.00121693       0.01933167      -0.01921492
W        1.11250930      10.66148583       1.09308571       0.10436294       0.03903060       0.03777965
W        4.19149529       7.72193256       4.07528285      -0.02773678      -0.05752607      -0.04398119
W       10.19328086       1.59363781      10.24352056       0.00908996      -0.02530374      -0.05245546
W       10.16811565      10.71597324       7.14032356       0.02369521       0.03974867       0.02432197
Zr      -0.33478940       6.01098200      -0.37753989      -0.02941003       0.07982609      -0.03001485
Zr       7.13802325       1.70772450       7.09708889      -0.00389385      -0.01133110       0.02760857
