127
Lattice="12.091614014443511 -0.00041071459908877085 0.0006695360618873701 -0.0004106839850753486 12.089532370641614 0.00038327849287979614 0.0006695322856332959 0.0003832328764644084 12.094344108101494" Properties=species:S:1:pos:R:3:forces:R:3 energy=-1145.7058954009772 free_energy=-1145.7058954009772 stress="0.005010545345763022 0.0005107117842817896 0.0012118257388414471 0.0005107117842817896 0.00499427112642326 0.0005169182878324402 0.0012118257388414471 0.0005169182878324402 0.005455588761378652" pbc="T T T"
Cr      -0.08709679       9.14153810      -0.09073838      -0.00082445       0.00143578       0.00390742
Cr       4.49049183       4.56401326       1.36902225      -0.00420114       0.00372191       0.00065393
Cr       4.44750081       7.59646632       1.35116646      -0.00240567      -0.00201717       0.00282455
Cr       8.96257078       3.17577491       5.85736486       0.01131685      -0.00953172      -0.00375406
Ti      -0.06843480       3.12811765       2.98040158      -0.01715366       0.01672984      -0.01425808
Ti       1.38146417       7.54747156       4.40965971      -0.00218943       0.01027888       0.00511431
Ti       2.82744807       0.04166029       5.91525015       0.00334998       0.00150552      -0.00005464
Ti       2.74317778       2.94780364       5.78282257      -0.01166300      -0.00273953      -0.01041831
Ti       2.92240248       9.14355098       6.02186059      -0.00156040      -0.00143134       0.00989188
Ti      10.42204772       1.59135130       7.43113292       0.00379772       0.00549707       0.00301850
Ti       8.96359957       9.15811393       2.94288195      -0.00068935       0.00370269       0.01091970
V       -0.09320927       0.04873915      -0.11586193       0.00451611       0.00299289       0.00588592
V        1.43539874       1.51690167       1.37800977       0.00696790       0.00202556      -0.00079692
V        0.86671220       0.98663779       4.02730904       0.13533388       0.04259545      -0.09582875
V       -0.11580058      -0.01534180       6.02327346      -0.02232959       0.01655381      -0.05547571
V        1.26549180       1.52540396       7.54950175      -0.00652508      -0.00853375      -0.00023731
V       -0.09879897      -0.00391401       9.01615224       0.00088204      -0.00103477      -0.00359476
V        1.43811129       1.52161028      10.51920367       0.00155071      -0.00252992      -0.00088971
V       -0.08171406       2.96937362      -0.05083551      -0.00244725      -0.00302870      -0.00409579
V        1.57062997       4.47357134       1.41861283       0.00061336       0.00179396      -0.00422422
V        1.40912946       4.75396033       4.43293378      -0.00614382       0.01377103      -0.00264587
V       -0.08129623       3.02803508       5.89786389       0.00531486       0.00170677      -0.00608973
V        1.35298772       4.56859184       7.44020292      -0.00493559      -0.00213794      -0.00175638
V       -0.08425059       3.06592725       8.97805580      -0.00242561       0.00004578       0.00129877
V        1.54961345       4.46499077      10.37146468      -0.00088970      -0.00019345      -0.00086347
V        1.45528053       7.67591825       1.39329939      -0.00092874       0.00268490       0.00363868
V       -0.17137149       6.01965555       2.89472447      -0.00671748       0.00193726       0.00361328
V       -0.16175294       6.05405589       5.99831632      -0.00417681       0.00538527       0.00277741
V        1.37063971       7.53242367       7.50439119      -0.00578166       0.00219754       0.00817286
V       -0.09425851       6.07769788       8.92964389      -0.00542168      -0.00098499       0.00140015
V        1.48467723       7.66914050      10.45707159      -0.00867606      -0.00090434       0.00545201
V       -0.18755703       9.04458302       2.91640390      -0.00240545       0.00296996       0.00388010
V        1.26986861      10.51966418       4.37090335       0.00150501      -0.01623830       0.00741715
V       -0.14983220       9.09815027       5.99172693      -0.00554142       0.00299997       0.00678846
V        1.35380076      10.56568430       7.56328429      -0.00836831       0.00980709      -0.00471349
V       -0.10175545       9.07407895       8.98838848      -0.00584872       0.00030622       0.00462022
V        1.39816746      10.57703256      10.54883927      -0.00177625      -0.00040553       0.00300185
V        2.92216166       0.02664877      -0.09821874       0.00491520      -0.00238842       0.00786438
V        4.40008958       1.55342991       1.35999769       0.00716041       0.00532924      -0.00461569
V        2.93878060       0.05950560       2.92059854       0.10257293      -0.02181259      -0.02666972
V        4.48394686       1.54209748       4.30426489       0.00680412       0.00570330      -0.00230520
V        4.36543466       1.56179318       7.50147216      -0.00527186      -0.00174752       0.00428507
V        2.87433197       0.02985868       8.99173647      -0.00312638      -0.00370303       0.00207000
V        4.40939359       1.54328418      10.49930239       0.00329229      -0.00631697       0.00040157
V        2.98156829       3.07385985      -0.09742785       0.00114703       0.00010965      -0.00176395
V        2.92898511       3.05370267       2.85896612      -0.01305626      -0.00285187       0.00680248
V        4.43808846       4.54159033       4.37529072      -0.00765360       0.00072992      -0.00093500
V        4.41679656       4.55162776       7.41762724      -0.00508420      -0.00029507      -0.00518202
V        2.88664132       3.03114035       8.94019686      -0.00128020       0.00126219       0.00161518
V        4.45383330       4.58849499      10.45539674      -0.00363701      -0.00236467       0.00240905
V        3.04542072       6.08349714      -0.10103404      -0.00633920       0.00127386       0.00081327
V        3.01204910       6.05188312       2.80592596      -0.00370351       0.00414447       0.00230214
V        2.94922657       6.00817997       5.96846020      -0.00387204      -0.00043217      -0.00145795
V        4.45465634       7.51657067       7.50460046      -0.00673329      -0.00636764       0.00299337
V        2.92215530       6.06895238       8.94021920      -0.00652513      -0.00192258      -0.00096467
V        4.46858847       7.59569960      10.43788627      -0.00768236      -0.00213414      -0.00097913
V        2.97206797       9.06671498      -0.10530017      -0.00337119      -0.00181576       0.00147336
V        4.41209736      10.62627487       1.36224873       0.00604399      -0.00658851       0.00066258
V        2.96445036       9.09725411       2.84510839       0.00540772       0.00505363       0.00506886
V        4.44552030      10.62519489       4.33238065       0.00692903      -0.00525829       0.01259578
V        4.47585589      10.65810655       7.56510363      -0.00458627       0.00133322       0.00153908
V        2.91133972       9.09127995       8.98425903      -0.00999480      -0.00524123       0.00182369
V        4.40293301      10.60338042      10.50726706      -0.00589713      -0.00713357      -0.00021909
V        5.92806014       0.03869590      -0.08713986       0.00439482      -0.00707768       0.00040674
V        7.43848797       1.55369539       1.40701711      -0.00264248      -0.00017822       0.00049303
V        5.91296174       0.05244719       2.87757960      -0.00625060      -0.00086199       0.00247590
V        7.42166741       1.60175624       4.39104017       0.00609138       0.00527568       0.00323514
V        5.81614093      -0.01716943       5.86085551      -0.00128526       0.00069392       0.00644494
V        5.86082433      -0.03186130       9.06264829       0.00312096      -0.00742195       0.00084961
V        7.40825826       1.54379841      10.57065300      -0.00098804      -0.00605998      -0.00068877
V        5.93222180       3.09003680      -0.07889819      -0.00014423      -0.00348956       0.00090820
V        7.46535974       4.57681841       1.41197950      -0.00603522       0.00148771       0.00216480
V        5.90500705       3.09674404       2.84249911      -0.00077412       0.00594431      -0.00031648
V        7.45012712       4.55133697       4.43816002      -0.00028392      -0.00308788       0.00447353
V        5.81380057       3.11333821       5.82796938      -0.00400453       0.00101287       0.00014491
V        7.44899461       4.61950355       7.41705524       0.00044317      -0.00356316      -0.00162479
V        5.83893662       3.16869986       9.05255925      -0.00476577      -0.00186195       0.00233726
V        7.41600335       4.62068761      10.47738314      -0.00514562      -0.00361232       0.00037939
V        5.93178159       6.09663651      -0.08384418      -0.00959923      -0.00114862       0.00194489
V        7.45424004       7.57129055       1.37451672       0.00005451      -0.00581956      -0.00078834
V        5.95283718       6.07073673       2.85557333      -0.00375256      -0.00242290       0.00245589
V        7.45410326       7.55071245       4.44247644       0.00235574      -0.00484954       0.00443282
V        5.95773218       6.06151599       5.93134757      -0.00089594      -0.00236211       0.00326608
V        7.44548459       7.57268030       7.45403606      -0.00062188       0.00018131       0.00636995
V        5.95087398       6.09885569       8.94986363      -0.00579590      -0.00256855       0.00144939
V        7.44891499       7.59096131      10.50294202      -0.00876372       0.00127067       0.00098759
V        5.93650909       9.07912346      -0.08520349      -0.00383749      -0.00536977       0.00263033
V        7.40807196      10.63553717       1.37462559      -0.00410903      -0.00181798       0.00478366
V        5.95208354       9.08270090       2.86298926       0.00560498      -0.00704732       0.00392995
V        7.37696351      10.64107199       4.45098560       0.00769917       0.00147098       0.00959196
V        5.95360539       9.08441705       5.93670205       0.00339106      -0.00011424       0.00639610
V        7.39337832      10.53731129       7.47692286       0.00195182      -0.00069113       0.00328088
V        5.94688709       9.07137113       8.99418857      -0.00548295      -0.00379607       0.00334115
V        7.44199115      10.58393136      10.52855611       0.00401909      -0.01079734       0.00116978
V        8.95721024       0.01246772      -0.01600485      -0.00504954      -0.00334296      -0.00081293
V       10.56996213       1.37963172       1.59731213      -0.00495539      -0.01086144       0.00006753
V        8.83387158       0.05986834       2.92925205      -0.01591330       0.00166310       0.00095918
V       10.35702803       1.55705768       4.48686837       0.01995690      -0.03062157      -0.00700609
V        8.95342625      -0.09317142       5.81990336       0.00717958       0.00341788      -0.00028194
V        8.95291696      -0.07585071       9.12031508       0.00473967      -0.00353626      -0.00109482
V        8.94200467       3.05135633      -0.05358911      -0.00805299      -0.00245659      -0.00329479
V       10.33004747       4.48019578       1.44833474      -0.01271671       0.00575793      -0.01086342
V        8.95693770       3.02569606       2.89666598       0.00037806      -0.00236323       0.00076300
V       10.36728335       4.53880652       4.52375272      -0.00604049      -0.00387993       0.00286867
V       10.43514804       4.55741903       7.42660914      -0.00369551       0.00055866       0.00303625
V        8.97247817       3.19115016       9.09241975      -0.00197806      -0.00282543       0.00069845
V       10.39372539       4.52728305      10.39354059      -0.00652658      -0.00098175      -0.00121544
V        8.91849537       6.09610718      -0.10383889      -0.00436697       0.00020816      -0.00089051
V       10.49510604       7.67866936       1.38920839       0.00269623       0.00338532       0.00425370
V        8.94638533       6.08467076       2.92582760      -0.00138479       0.00133097       0.00345642
V       10.48062560       7.55152829       4.46945254      -0.00587928       0.00695341       0.00759765
V        8.93755183       6.12032643       5.94562249      -0.00180738       0.00079959       0.00134280
V       10.47813898       7.55490454       7.45063411      -0.00321148       0.00427664       0.00530432
V        8.94929828       6.11690683       8.95546154      -0.00629298      -0.00150372       0.00246046
V       10.44240905       7.67829973      10.44251699      -0.01170257      -0.00394329       0.00264711
V        8.94191247       9.10354916      -0.06597222      -0.00250592      -0.00317718       0.00377050
V       10.52999125      10.69402013       1.44561214      -0.00049927       0.00525769       0.00574894
V       10.58576159      10.77679655       4.34382238       0.01771985       0.03505475      -0.01517487
V        8.93012750       9.05545825       5.92695723       0.00384891       0.00879703       0.00398043
V        8.94358653       9.05963804       8.99185893      -0.00268674       0.00395462       0.00286606
V       10.50510137      10.55252223      10.59001536       0.00083171      -0.00232525       0.00425488
W        1.33141562      10.67132369       1.48604576       0.00228685       0.00611940       0.01158795
W        4.45350721       7.56515461       4.39993183       0.00024074       0.00082388       0.00540014
W       10.46056269       1.52699044      10.53232193       0.00008776      -0.00347611      -0.00138661
W       10.42756730      10.58546294       7.48095226       0.00468955       0.00602252      -0.00537110
Zr      -0.06359954       6.00381831      -0.14630226      -0.00311019      -0.00031891       0.00228751
Zr       7.41649645       1.58710619       7.44591741       0.00019171       0.00241533       0.00090766
