127
Lattice="12.091614014443511 -0.00041071459908877085 0.0006695360618873701 -0.0004106839850753486 12.089532370641614 0.00038327849287979614 0.0006695322856332959 0.0003832328764644084 12.094344108101494" Properties=species:S:1:pos:R:3:forces:R:3 energy=-1146.2649023424779 free_energy=-1146.2649023424779 stress="0.005595411106142283 0.0003371379887048046 0.0015770127215261858 0.0003371379887048046 0.005725587356266077 0.0003049913881682336 0.0015770127215261858 0.0003049913881682336 0.0054963137239305545" pbc="T T T"
Cr      -0.03866959       9.14081037      -0.05028902      -0.00174607       0.00071840       0.00142238
Cr       4.52649045       4.55171824       1.41167888      -0.00758960       0.00191163       0.00754868
Cr       4.49466331       7.58025544       1.38911243      -0.00103638      -0.00211879       0.00151640
Cr       9.01440030       3.16908413       5.90135550       0.00935983       0.00156726       0.00878374
Ti       0.06498600       3.04607126       3.09591099       0.06796733      -0.08562604       0.07083934
Ti       1.41256219       7.55978339       4.43731584      -0.01294799       0.02069588      -0.00571478
Ti       2.81154072       0.09862539       5.86506311      -0.04033954       0.05499156      -0.05857493
Ti       2.75517676       2.90818838       5.78264004      -0.01261302      -0.00526663      -0.01472965
Ti       2.97789276       9.13488107       6.06837011       0.00864280       0.00494799       0.00981362
Ti      10.48472628       1.58570283       7.48793163       0.01880409       0.00054312       0.01639798
Ti       9.01779683       9.14529879       2.97864621      -0.00067657      -0.00538239      -0.00453667
V       -0.03240430       0.04800460       0.00327934       0.00730126       0.00301507       0.05641923
V        1.52583265       1.54854508       1.36976328       0.03327167       0.02679421      -0.02720419
V        0.31789498       0.37157588       3.37851851      -0.44559071      -0.45242191      -0.48963496
V       -0.01932919       0.06389929       6.02345409       0.03841076       0.06190574      -0.03478800
V        1.33757654       1.52463608       7.66633029       0.02508201       0.00915813       0.05606268
V       -0.05588683      -0.01440006       9.06740674       0.00039133      -0.00110581       0.01124136
V        1.48098447       1.50533307      10.56455102      -0.00137593      -0.00195265       0.00817066
V       -0.04265834       2.99366827      -0.00344813      -0.00205464       0.01500478       0.01548760
V        1.60064611       4.49108903       1.47459303      -0.01614210       0.01406226       0.03110459
V        1.44446907       4.79451926       4.46997084      -0.00515544       0.03356919      -0.00119789
V       -0.01123343       2.98080830       5.90280894       0.02494268      -0.01650540      -0.00429398
V        1.38715692       4.55146286       7.47298712       0.00132469       0.00155069      -0.00193801
V       -0.05090133       3.07861434       9.02901706      -0.00361467       0.01823536       0.01380195
V        1.58063826       4.46005559      10.41086485      -0.00657916       0.00401121       0.00738399
V        1.49242148       7.66041661       1.44109404      -0.00925482      -0.00149463       0.00462125
V       -0.13584673       6.02842426       2.91829443      -0.00385151       0.00590060      -0.00638421
V       -0.13259600       6.04712539       6.04405155      -0.00600347       0.00470162       0.00516589
V        1.40346211       7.52725723       7.53820803      -0.00397361       0.00699844       0.00059949
V       -0.06191165       6.07681586       8.96770333      -0.00140521       0.00393267       0.00208274
V        1.52175471       7.66879710      10.49459378      -0.00244296       0.00193714       0.00236273
V       -0.12266087       9.14967716       2.96099742       0.00774886       0.08386692       0.00439674
V        1.36960737      10.49882529       4.45422196       0.03743600      -0.01519671       0.03256605
V       -0.11644377       9.10978562       6.04316866      -0.00651849       0.01688494       0.01039851
V        1.39511231      10.60044252       7.59359825      -0.00003826       0.03704679      -0.00349003
V       -0.06534591       9.06845700       9.03137758      -0.00222015       0.00143164       0.00468837
V        1.43870662      10.58092284      10.57622563      -0.00522312       0.00947020      -0.00759696
V        2.99909142       0.01499730      -0.05217484       0.01844822       0.00143215       0.00641213
V        4.48520281       1.53819863       1.40977908       0.02168743      -0.00183210       0.01252755
V        2.99952021       0.09788021       2.98408360      -0.00711420       0.03666969       0.02188444
V        4.62106046       1.53533893       4.36356700       0.05796331       0.00783467       0.01723223
V        4.39369749       1.54781149       7.52406661      -0.01014552       0.00018619      -0.00535167
V        2.93011844       0.01241830       9.03314315       0.00762006      -0.00247840       0.00548542
V        4.46054814       1.52868182      10.53031877       0.00184008      -0.00454460      -0.00267252
V        3.03197480       3.06762366      -0.04797500       0.00264755       0.00357496       0.01432902
V        2.96539487       3.01880951       2.93480360       0.00433879      -0.00576453       0.03243653
V        4.47209685       4.52968919       4.41270255      -0.00297661       0.01022237       0.00404454
V        4.44777146       4.53707408       7.45431125      -0.00086146       0.00368399       0.00170073
V        2.93434295       3.02638252       8.97566031       0.00634887       0.00874307       0.00689625
V        4.48299756       4.57191630      10.49081553      -0.00576276      -0.00784451       0.00221757
V        3.07992073       6.07252970      -0.06425525      -0.00487506      -0.00117276       0.00387409
V        3.05974213       6.04765407       2.83697867       0.00130153       0.01107517      -0.00032210
V        2.98475399       5.99850833       6.00719759      -0.00173041       0.01341571       0.00243653
V        4.48439104       7.50090945       7.54065461      -0.00192503       0.00097034       0.00112772
V        2.95214640       6.05628981       8.97615420      -0.00192916       0.00058413       0.00278616
V        4.49773891       7.58348245      10.47623800      -0.00731831      -0.00364618       0.00227063
V        3.02463282       9.05328899      -0.07046211       0.00329032      -0.00113796      -0.00047544
V        4.50267863      10.61712778       1.40637781       0.02734371       0.00504616       0.00929660
V        3.03431280       9.09454977       2.88793996       0.01469089       0.00882069       0.00478943
V        4.51298666      10.63005044       4.37234885       0.01303804       0.01462796       0.00024554
V        4.50351419      10.65390569       7.59324875      -0.00799326       0.00625016      -0.00350130
V        2.94426508       9.08518601       9.00707721      -0.00418181       0.00412465      -0.00722862
V        4.44987883      10.58749815      10.53858365      -0.00026352      -0.00364238      -0.00193854
V        5.99466558       0.02745060      -0.05684725       0.01025524      -0.00091174      -0.00354239
V        7.50744606       1.54292349       1.45579339       0.00964663       0.00056355       0.00977468
V        5.98782477       0.02774787       2.90811982       0.01359771      -0.00449080      -0.00320660
V        7.48638325       1.58193674       4.41135517       0.01053943      -0.00341507      -0.00926279
V        5.87272739      -0.04709930       5.91462495       0.00324385      -0.01110319       0.01137510
V        5.90315461      -0.05186605       9.09293305       0.00164111      -0.00873826      -0.00222812
V        7.45447726       1.53390157      10.60646719       0.00238476      -0.00550496       0.00032780
V        5.97693150       3.07660779      -0.04403458       0.00079594      -0.00427602       0.00028153
V        7.50828314       4.57196686       1.44984887       0.00324396       0.00068267      -0.00107359
V        5.95782004       3.09911543       2.87297755       0.00484593       0.01604201      -0.00359595
V        7.49825933       4.54248346       4.47359160       0.00621491       0.00342698      -0.00434854
V        5.85483520       3.10725486       5.87698076       0.00159730       0.00861855       0.00997634
V        7.48121073       4.60669259       7.45430781       0.00014777      -0.00428878      -0.00057104
V        5.87604667       3.15462922       9.08387670      -0.00179155      -0.00827732      -0.00194035
V        7.44958815       4.60899644      10.51807933      -0.00261762      -0.00812221       0.00206714
V        5.96759219       6.08654723      -0.04448510      -0.00389419      -0.00447224      -0.00109370
V        7.50292266       7.56228930       1.41230848       0.00299749      -0.00495720      -0.00663308
V        5.99965082       6.06139057       2.89353695       0.00220250       0.00198872      -0.00182491
V        7.50164983       7.53982745       4.48519358       0.00454818      -0.00097139       0.00026450
V        5.99524787       6.04956718       5.96850227       0.00246033       0.00396092      -0.00236201
V        7.47795620       7.56259027       7.49475358       0.00008695      -0.00229391      -0.00052127
V        5.97648947       6.08575257       8.98738533      -0.00565133      -0.00355147      -0.00035821
V        7.48035408       7.58273268      10.54171427      -0.00640301      -0.00276069      -0.00284821
V        5.98653743       9.06389923      -0.04887056       0.00109232      -0.00633522      -0.00070881
V        7.46536009      10.63931235       1.42538868       0.00343248       0.00759168       0.00877707
V        6.01778290       9.07064163       2.90801456       0.01191403      -0.00202108       0.00167152
V        7.45427016      10.64447589       4.48926325       0.01390052       0.01049766      -0.00271213
V        5.99209155       9.07767388       5.97706491      -0.00003520       0.00406606       0.00268425
V        7.43583654      10.52674887       7.52095742       0.00198673      -0.00005623       0.00289019
V        5.98079373       9.05826620       9.03359193      -0.00331301      -0.00470795       0.00298499
V        7.48932685      10.57127365      10.56879086       0.00343625      -0.00762055       0.00314938
V        9.01415241       0.00719693       0.02764930       0.00061598      -0.00123622       0.00063743
V       10.57537743       1.49635199       1.56583655      -0.03237108       0.07401383      -0.04351916
V        9.00162117       0.05406574       2.96714179       0.07603615      -0.00116394       0.00290115
V       10.38034105       1.58288668       4.56270649      -0.02342987       0.02234246       0.03660802
V        9.00741299      -0.09027485       5.89384172       0.00459793       0.01168636       0.02643935
V        9.00079054      -0.08451592       9.16500397       0.00354266      -0.00155732       0.00345398
V        8.98426401       3.05648179      -0.01693190      -0.00030543       0.00580791       0.00365577
V       10.39279684       4.48153695       1.51186017       0.02355492      -0.00477919       0.02972423
V        9.01315878       3.04406949       2.93887232       0.00501273       0.01496574       0.00669456
V       10.43696273       4.54344997       4.54818583       0.02377637       0.00651583      -0.00936139
V       10.47041387       4.54954497       7.45989825       0.00311341       0.00146892      -0.00148123
V        9.00819061       3.18360297       9.12519894      -0.00142370      -0.00318853      -0.00091850
V       10.42229796       4.52370268      10.42960850      -0.00733311      -0.00073199       0.00440836
V        8.94895683       6.09744054      -0.06953744      -0.00704415      -0.00100847      -0.00342716
V       10.55609027       7.68135449       1.44325788       0.00991455       0.00412823       0.00880627
V        8.99355360       6.08905096       2.96998531       0.00613870       0.00481277       0.00160972
V       10.52586443       7.55716359       4.51195174      -0.00090990       0.00951895       0.00196728
V        8.97266126       6.11166097       5.98659265      -0.00074694      -0.00098656      -0.00086718
V       10.51174648       7.54926759       7.49450105      -0.00172190       0.00268421       0.00263107
V        8.97553666       6.10816870       8.99310914      -0.00400934      -0.00374753      -0.00195212
V       10.46743254       7.67581840      10.48326068      -0.01031972      -0.00266241       0.00256280
V        8.98745031       9.09167054      -0.02358886      -0.00024695      -0.00922882      -0.00114120
V       10.58984596      10.66715752       1.45883706      -0.00175658      -0.01002835      -0.01247585
V       10.57710641      10.71277746       4.49855613      -0.04168731      -0.03863934       0.07576931
V        8.97506430       9.04996184       5.97646889       0.00120554       0.00472484       0.00680072
V        8.97783897       9.04954997       9.04042347      -0.00132063      -0.00433912       0.00466583
V       10.56435141      10.55394705      10.63531451       0.01018543       0.00206435       0.00212516
W        1.47033984      10.63585803       1.48586504       0.05809354      -0.01883620      -0.02698861
W        4.49880742       7.55410005       4.43942351       0.00164103       0.00586224       0.00263887
W       10.51487353       1.52078379      10.57871819       0.00601421      -0.00119031       0.00771486
W       10.48171114      10.58999694       7.53787050       0.01032612       0.01121409       0.01211863
Zr      -0.03331948       6.00835652      -0.11814705      -0.00662340       0.00382709      -0.00068909
Zr       7.45919502       1.57339582       7.48092669      -0.00079724      -0.00385716      -0.00179938
