127
Lattice="12.091614014443511 -0.00041071459908877085 0.0006695360618873701 -0.0004106839850753486 12.089532370641614 0.00038327849287979614 0.0006695322856332959 0.0003832328764644084 12.094344108101494" Properties=species:S:1:pos:R:3:forces:R:3 energy=-1146.5998349150013 free_energy=-1146.5998349150013 stress="0.005840834782586783 -0.00034841869318930584 0.0012834463268213095 -0.00034841869318930584 0.005725251931010839 -0.0002823379473416691 0.0012834463268213095 -0.0002823379473416691 0.005506932080319463" pbc="T T T"
Cr      -0.00501292       9.12866366      -0.02585472      -0.00426657      -0.01012322      -0.01051015
Cr       4.56181979       4.55299690       1.44000701      -0.00146521       0.00453814       0.00658965
Cr       4.52944287       7.58171549       1.41805667      -0.00371349       0.00345282       0.00251834
Cr       9.04913551       3.16613659       5.93769445       0.00603476       0.00364061       0.00431400
Ti       0.18655517       2.88340379       3.21568461       0.05703677      -0.09972521       0.06464905
Ti       1.44376353       7.54356131       4.46807260      -0.00267890      -0.00168225       0.00095914
Ti       2.83691904       0.11884866       5.87264787      -0.00177096       0.02404534      -0.01054975
Ti       2.79048230       2.91326719       5.80967821       0.01246760       0.02168463       0.00995608
Ti       3.00655763       9.13413008       6.09213042      -0.00464644       0.01274425      -0.00403219
Ti      10.52830816       1.57730855       7.52017145       0.00961938      -0.00056523      -0.00346213
Ti       9.03679397       9.12133044       3.01653103      -0.01574776      -0.01387886      -0.00151886
V       -0.00332130       0.03574426       0.02975668      -0.00851062      -0.00904330      -0.01414975
V        1.56309960       1.53775287       1.37620517      -0.00748468      -0.01009302      -0.00667977
V        0.08961775       0.11984595       3.15490931      -0.12213337      -0.11476773      -0.11480208
V        0.02902245       0.10015140       5.97585181       0.00961868       0.02590900      -0.05009798
V        1.38797774       1.53002990       7.70266546       0.01470154       0.01214070       0.00349186
V       -0.01594737      -0.01230527       9.09566207       0.00614747       0.00692813      -0.00678381
V        1.51996132       1.50785978      10.58949234       0.00246043       0.00694987      -0.00026963
V        0.00367228       2.99398913       0.03377885       0.00580344      -0.00457923       0.00854542
V        1.62529190       4.47377197       1.53504823      -0.01000514      -0.01353240       0.02939905
V        1.47088254       4.77081235       4.49737909      -0.00163404      -0.00958717       0.00179782
V        0.02218768       2.99976183       5.97528371       0.00835482       0.01708618       0.03161678
V        1.41762822       4.55475236       7.50945225       0.00763974       0.01491222       0.00954183
V       -0.02126123       3.08880673       9.06682065       0.00358408       0.01010747       0.00362450
V        1.60933746       4.46358953      10.44967047       0.00238658       0.00645333       0.01183627
V        1.53036478       7.64001263       1.47225256      -0.00201200      -0.01030685      -0.00165810
V       -0.08893118       6.00547827       2.95275964       0.00873393      -0.01430502       0.00377355
V       -0.10673504       6.03786678       6.07982364       0.00296285      -0.00005942       0.00345703
V        1.43045837       7.52933138       7.56906513       0.00369293       0.01096186       0.00045662
V       -0.03917620       6.08040631       9.00389835       0.00214678       0.00770845       0.00427723
V        1.54948036       7.66756540      10.52472771      -0.00158372       0.00081363       0.00026711
V       -0.08790744       9.15194937       2.98606999      -0.00815566      -0.00636409      -0.00938223
V        1.39870629      10.46879396       4.47492739      -0.00821291      -0.00484896      -0.01112902
V       -0.07802990       9.11058925       6.07219667       0.00305903       0.00897172      -0.00709214
V        1.42271387      10.62588567       7.60371983      -0.00177246       0.02434583      -0.01538837
V       -0.03464251       9.06834065       9.05921765       0.00252433       0.00564009      -0.00742770
V        1.47616157      10.58215372      10.58602688       0.00092966       0.00327135      -0.01675841
V        3.04533980       0.02016941      -0.02623356      -0.00108196       0.00373762      -0.00225530
V        4.53028829       1.53208232       1.44705726      -0.00302346       0.00094282       0.00734110
V        2.97667653       0.12872255       3.02015000      -0.03919789       0.01772352       0.00184858
V        4.66836099       1.54297198       4.40010253       0.00615936       0.01287120       0.00758595
V        4.41875148       1.54361693       7.54313164       0.00200649       0.00733631       0.00050202
V        2.96693813       0.00909393       9.05791989       0.00359572       0.00678700      -0.00312838
V        4.49794766       1.52564523      10.55573954       0.00136187       0.00203201       0.00372031
V        3.07070511       3.06910258      -0.01642502      -0.00073389       0.00425155       0.00904190
V        3.03998666       3.03232245       2.96351124       0.02215897       0.00987278       0.00882279
V        4.51537208       4.53546866       4.44564678       0.01154997       0.01583627       0.01002202
V        4.47495744       4.53529963       7.48265146       0.00727172       0.01005423       0.00750654
V        2.96927664       3.03007379       9.01185724       0.00643841       0.01053973       0.01211304
V        4.51228749       4.56647330      10.51867452       0.00315309       0.00071902       0.00667497
V        3.11256518       6.07222673      -0.03597222       0.00055627       0.00205148       0.00626602
V        3.09631118       6.04432383       2.86461357       0.00031191       0.00302079       0.00499565
V        3.01757522       6.00462394       6.04276140       0.00552032       0.01916766       0.00697128
V        4.51134163       7.50450068       7.57179107       0.00280709       0.01315343       0.00404284
V        2.97766890       6.05866521       9.00646727       0.00383383       0.00843215       0.00560452
V        4.52575387       7.57999858      10.50522944       0.00121009       0.00145821       0.00320078
V        3.05834211       9.05303947      -0.03983417      -0.00431289       0.00090853      -0.00051822
V        4.55054072      10.62828987       1.44951181      -0.00317123       0.00908276       0.00696473
V        3.07224221       9.08884714       2.92298731      -0.00605299       0.00406711       0.00128360
V        4.53806913      10.64261273       4.39004578      -0.01111716       0.01593716      -0.00842113
V        4.52893170      10.64748962       7.61661649       0.00065766       0.00401278      -0.00266406
V        2.97450320       9.08630176       9.03096042       0.00423718       0.00815659      -0.00395542
V        4.48133091      10.58459973      10.57087528      -0.00157346       0.00187839       0.00273657
V        6.03370280       0.02760903      -0.02774575      -0.00529326       0.00223049       0.00056536
V        7.54629346       1.54140858       1.48534397      -0.00483876       0.00127086      -0.00195788
V        6.03200860       0.02747776       2.94092994      -0.00214853       0.00821516       0.00240299
V        7.52655888       1.57362732       4.43959161       0.00233501       0.00201617       0.00024459
V        5.90290430      -0.05930808       5.94619662      -0.00350679       0.00173865       0.00068177
V        5.93285235      -0.06279740       9.11876092       0.00196910      -0.00084371      -0.00060843
V        7.48801894       1.52929125      10.63411566       0.00010842      -0.00417000       0.00030540
V        6.01504012       3.07461374      -0.01661492       0.00044381       0.00008564       0.00441587
V        7.55425584       4.56761566       1.48152762       0.00719223      -0.00238377       0.00405881
V        6.00475802       3.10183387       2.90011687       0.00507251       0.00795415       0.00373116
V        7.54113941       4.53865004       4.50198120       0.01051336       0.00452193       0.00271735
V        5.89314037       3.10996323       5.91238215       0.00987002       0.01305907       0.00838000
V        7.50904658       4.60054149       7.48497511       0.00557565       0.00331003       0.00464482
V        5.90592825       3.14595799       9.11041752       0.00506254      -0.00363185       0.00637302
V        7.47975720       4.60209899      10.54943898       0.00255096      -0.00425711       0.00501458
V        5.99937472       6.08035579      -0.01357402       0.00008536      -0.00315174       0.00418858
V        7.53850006       7.55254775       1.43769942      -0.00341649      -0.00755822      -0.00417911
V        6.03744173       6.05764692       2.92043422       0.00128734       0.00284685       0.00258371
V        7.53551217       7.53131270       4.52134509       0.00000706       0.00109294       0.00361879
V        6.02608169       6.04846383       5.99529431       0.00516915       0.00999279       0.00310048
V        7.50496435       7.55822916       7.52907105       0.00367770       0.00291029       0.00343265
V        6.00301073       6.08138444       9.01824486       0.00437600       0.00019608       0.00506763
V        7.50738444       7.57957482      10.57052966      -0.00035105      -0.00196392      -0.00080393
V        6.02068970       9.05599747      -0.01881572      -0.00339121      -0.00337918       0.00098830
V        7.50563747      10.63635086       1.45914656      -0.00638772      -0.00208736      -0.00310536
V        6.05740084       9.06692141       2.94080078      -0.00593147       0.00152701       0.00035717
V        7.48515552      10.64052864       4.52348824      -0.00879794       0.00010861      -0.00252250
V        6.02248414       9.07554107       6.01119350       0.00103470       0.00711305       0.00285190
V        7.47369228      10.52454417       7.55132891       0.00628290       0.00371542      -0.00220215
V        6.00700617       9.05423556       9.06504594       0.00028016       0.00237118       0.00225180
V        7.52142112      10.56392276      10.59685676      -0.00168464      -0.00408411      -0.00368405
V        9.04206416       0.00663283       0.04384539      -0.01040851      -0.00103908      -0.01455839
V       10.59905736       1.50053342       1.57318931      -0.01077572      -0.00612800      -0.01296825
V        9.06611414       0.02643383       2.98381642      -0.00449177      -0.01459127      -0.01136167
V       10.38804072       1.56057473       4.59635506      -0.01174686      -0.01476129      -0.00286996
V        9.03952661      -0.08763843       5.93662101      -0.00159364       0.00532859       0.00012553
V        9.03639175      -0.08760845       9.19038604       0.00329306      -0.00103362      -0.01009795
V        9.02755726       3.05915940       0.02155919       0.00658676      -0.00146984       0.00738627
V       10.46075792       4.46012076       1.58387833       0.02195621      -0.02056223       0.02978330
V        9.04926371       3.03885132       2.97820731       0.00065214      -0.00584122       0.00673561
V       10.49659179       4.51942675       4.57526967       0.01848738      -0.01455485       0.00127732
V       10.49589757       4.55112192       7.49549345       0.00520132       0.00677024       0.00385748
V        9.03896070       3.17724911       9.15936052       0.00576928      -0.00164808       0.00292047
V       10.44778760       4.52300612      10.46952520      -0.00127079      -0.00074885       0.00703778
V        8.98002088       6.09259489      -0.03552016      -0.00046616      -0.00793835       0.00460462
V       10.59828563       7.66277969       1.48822880      -0.00174404      -0.01611556       0.00430068
V        9.03837813       6.07740478       3.00556991       0.00665235      -0.00923671       0.00250680
V       10.55736848       7.54064193       4.55042852      -0.00126020      -0.00720637      -0.00154720
V        9.00306762       6.10550420       6.01885037       0.00584582       0.00140519       0.00020936
V       10.53711550       7.55261609       7.52742530       0.00233110       0.00789688      -0.00270335
V        8.99740973       6.10342440       9.02564682       0.00259872       0.00058540       0.00100613
V       10.49015476       7.66987194      10.51904074      -0.00012316      -0.00263429       0.00035757
V        9.02425569       9.08114273       0.00247179      -0.00154920      -0.00659958      -0.00599589
V       10.60244310      10.64298645       1.47554190      -0.02465277      -0.01614027      -0.01803280
V       10.59108973      10.67770278       4.53069668      -0.01862695      -0.01748906      -0.00908266
V        9.00709854       9.04674665       6.01736568       0.00088777       0.00278503      -0.00050642
V        9.00636030       9.04554734       9.07370622       0.00182919      -0.00018709      -0.00341147
V       10.60115624      10.55083458      10.65298278      -0.00025210      -0.00240143      -0.01597509
W        1.51295194      10.61480561       1.49127469      -0.00635079      -0.01304856      -0.01909900
W        4.53271485       7.55373964       4.47048280      -0.00089168       0.01019789       0.00356204
W       10.55238094       1.52145434      10.60678802       0.00201509       0.00082541      -0.00508310
W       10.52443679      10.59801426       7.56568817       0.00700550       0.00918212      -0.00970328
Zr      -0.00265103       5.99901757      -0.07764408      -0.00168576      -0.00961346       0.00813673
Zr       7.48855565       1.56997506       7.51159197       0.00295640       0.00437215       0.00059353
