127
Lattice="12.091614014443511 -0.00041071459908877085 0.0006695360618873701 -0.0004106839850753486 12.089532370641614 0.00038327849287979614 0.0006695322856332959 0.0003832328764644084 12.094344108101494" Properties=species:S:1:pos:R:3:forces:R:3 energy=-1141.3406409223808 free_energy=-1141.3406409223808 stress="0.001061036266542434 -0.00143235938795562 0.0003899596884929144 -0.00143235938795562 -0.001833872078622881 -0.0008437669038024293 0.0003899596884929144 -0.0008437669038024293 -0.00011846619215851997" pbc="T T T"
Cr      -0.44512892       9.16578578      -0.38669089      -0.01554765       0.01775246       0.10225150
Cr       4.19296591       4.68431452       1.06853647      -0.03035998      -0.06513307       0.02373340
Cr       4.13968191       7.72255772       1.00785615      -0.03845173       0.00042428       0.00433573
Cr       8.57923869       3.34625583       5.69979313      -0.07308861      -0.02010948      -0.01179361
Ti      -0.24734931       2.84571584       2.95661286       0.02345841       0.09853715      -0.18357515
Ti       1.07575923       7.63235817       4.08002256       0.01925176      -0.03115917       0.10096835
Ti       2.39592684       0.28329793       5.55593671       0.32569730      -0.23741529       0.16914206
Ti       2.50327132       3.10845384       5.54018812      -0.13042582      -0.06427792      -0.04420001
Ti       2.64714621       9.25182628       5.64953661      -0.09560559       0.07684865       0.01525815
Ti      10.12565624       1.60683037       7.21114674      -0.01928773       0.04121978       0.04035016
Ti       8.52902180       9.11678656       2.54178990      -0.11778531      -0.11887613      -0.08387599
V       -0.47659877       0.07582012      -0.35350863      -0.07870627       0.00492311       0.06744356
V        1.13115294       1.58772762       1.06553896      -0.19387795       0.16301689      -0.13903551
V       -1.35970511       0.00029045       4.21092716       1.70068242       1.43550981      -2.30046100
V       -0.18556908      -0.04664329       6.20489782       0.04705988       0.32506215      -0.21540859
V        1.05950980       1.71475811       7.47609903      -0.04598543      -0.19599900      -0.09814582
V       -0.45734359       0.04149150       8.87864171       0.08058634      -0.03175471      -0.13181008
V        1.10568673       1.61167584      10.29681972      -0.01230908      -0.00712246       0.00743342
V       -0.38877445       3.02687277      -0.24087766      -0.09064501       0.05608109      -0.03666199
V        1.26008723       4.51469840       1.25779121      -0.04755208       0.01012447       0.02487527
V        1.10656295       4.79824624       4.16640064      -0.02526153       0.01340066      -0.06499854
V       -0.32568984       3.05375154       5.70849144       0.05334089       0.09279770       0.04737148
V        1.09096917       4.67343529       7.18343503       0.02328757      -0.04336788       0.00005638
V       -0.41426567       3.17327465       8.77791608       0.06295812      -0.03223403      -0.00798352
V        1.26196840       4.58211327      10.12966630      -0.02121949      -0.05213130       0.05256382
V        1.13860009       7.74450843       1.12456020       0.07002324      -0.06803859       0.03843480
V       -0.42879659       6.04974298       2.63667189       0.03048667      -0.03316191      -0.09915130
V       -0.41017549       6.09171140       5.69731142      -0.09487951       0.00506031       0.10069788
V        1.11463593       7.60871799       7.17360208      -0.06439219      -0.07641172       0.02214977
V       -0.36349973       6.12633372       8.66818573      -0.06101890      -0.00212345       0.00234385
V        1.17757508       7.72054395      10.16747882       0.01368480      -0.03423490      -0.00892229
V       -0.53402654       9.14780353       2.62851055       0.09311969      -0.19051937      -0.06823458
V        0.87079464      10.57850435       4.13133596      -0.00284089      -0.23845948       0.10289946
V       -0.41418333       9.10372917       5.75090850      -0.00123659      -0.04393598       0.11044890
V        1.11125340      10.58621570       7.35746901      -0.03688912       0.13454086       0.09585358
V       -0.42613424       9.08090499       8.74157906      -0.01303919       0.07448944       0.03109354
V        1.05461928      10.64700328      10.25622542      -0.01663299      -0.05741693       0.12237548
V        2.56759917       0.11075849      -0.39173620      -0.01340451      -0.03003702       0.08417420
V        4.06565326       1.63666619       1.12652764      -0.12190617      -0.07260427       0.02581307
V        1.62762494       0.40144873       2.90387732       0.94479670       0.22758008       0.24538796
V        4.16744211       1.64633059       3.96463974      -0.08497227      -0.01551046       0.07635746
V        4.03105097       1.66741606       7.18601180       0.10100255       0.02839027       0.02343815
V        2.56273176       0.14017572       8.73397203       0.04297286      -0.04730563       0.02000551
V        4.08247521       1.66556655      10.22263914       0.00176870      -0.03105744       0.08165787
V        2.69152692       3.18697875      -0.35501664       0.00432025      -0.01475456       0.04298037
V        2.63779781       3.16706106       2.63033775      -0.13890675      -0.16187587       0.02624068
V        4.16224928       4.67926061       4.08179771      -0.02403762       0.02478975       0.01230846
V        4.16409453       4.69101832       7.11992460       0.05524615       0.01376878       0.08518234
V        2.62254855       3.17729449       8.69217658       0.00653451       0.00522154       0.06580905
V        4.17134642       4.69653195      10.15035805       0.02655046       0.02166735       0.02193628
V        2.75883753       6.19716993      -0.38862123       0.01349561      -0.01881689      -0.01007419
V        2.72147999       6.15581270       2.50551447      -0.02389055      -0.06283204       0.00872477
V        2.68829530       6.14934460       5.66201342      -0.00970892      -0.01293818       0.00230729
V        4.17529710       7.66492857       7.16433858       0.01453943       0.02136234      -0.06787280
V        2.67431239       6.18911564       8.64303815      -0.06796993      -0.01435726      -0.03667968
V        4.17147022       7.71258928      10.11413130      -0.03419624      -0.03911914      -0.03940711
V        2.64576980       9.16365992      -0.42910461      -0.05320544      -0.01639350       0.05330996
V        4.02235395      10.77090648       1.08705653       0.01036047       0.00437719       0.03431740
V        2.58152572       9.21867320       2.53284787      -0.01728418       0.04470344       0.04484155
V        4.01402316      10.83469497       3.93677630      -0.09763185       0.04011318       0.01153854
V        4.09923050      10.77212668       7.19140229       0.06917050       0.07231450       0.06445776
V        2.61081847       9.18184238       8.65808992      -0.00255031       0.07540990       0.05116798
V        4.03975796      10.72753125      10.19193606       0.15440790      -0.02070688       0.07768867
V        5.53760566       0.17722056      -0.35135102       0.10756034      -0.17054602      -0.10640070
V        7.10729108       1.63983989       1.13980145      -0.06744076       0.01725988      -0.05260617
V        5.62507336       0.15880341       2.57956383      -0.03958466      -0.03771916      -0.05887601
V        7.03160438       1.65799925       4.10512940       0.00520215       0.02457188       0.04139540
V        5.40735681       0.09207435       5.53006088       0.07142422      -0.01439598       0.11588687
V        5.47056817       0.09867800       8.75104916       0.07980125      -0.06028049       0.04352384
V        7.06023539       1.64973611      10.27798556       0.05303096      -0.13892216       0.03538431
V        5.62894801       3.19367249      -0.36610572      -0.03744167       0.01705188      -0.00953876
V        7.18889809       4.66154123       1.11310300      -0.01524782      -0.01900526      -0.07415706
V        5.60232204       3.21867935       2.55162791      -0.08995290      -0.06572226      -0.01524266
V        7.15625260       4.67474232       4.10990706      -0.07425305       0.01112053      -0.04271539
V        5.52229600       3.24723099       5.53108472      -0.03869058      -0.08141625       0.04249169
V        7.17005894       4.69671193       7.12157501       0.05751038       0.00765544       0.05124519
V        5.55129247       3.24391367       8.75142957       0.03200717       0.03633657      -0.01616562
V        7.16183512       4.66097985      10.19237021      -0.02622835       0.05975215      -0.04137223
V        5.65585150       6.18276819      -0.41849082       0.02858878       0.04292749      -0.07881565
V        7.12599311       7.61903362       0.98677724      -0.05211420       0.05178493       0.07428122
V        5.65085577       6.17753063       2.52327540      -0.02926948      -0.00846039       0.00535530
V        7.10616690       7.60121845       4.08779733      -0.07003738       0.01341614       0.12603241
V        5.69038573       6.18539758       5.59547933      -0.09016874      -0.00124421      -0.04385605
V        7.15399927       7.65616437       7.12641785      -0.00521254      -0.05898667       0.06896572
V        5.69126990       6.19291189       8.63387339      -0.05481246       0.04534700      -0.03028380
V        7.15435552       7.65188568      10.14810275      -0.01029251       0.07249477       0.07377026
V        5.59097610       9.17991226      -0.43640401      -0.01332099       0.03555467       0.07589934
V        7.03791570      10.73301871       1.07892146       0.00442862      -0.05280995      -0.10744153
V        5.57596639       9.19682953       2.50758971      -0.07042239       0.05422283       0.01545394
V        6.99135845      10.72788962       4.13610808      -0.05131360      -0.19814269      -0.01825839
V        5.58705603       9.21491305       5.59326222      -0.03676878      -0.01081817       0.04615089
V        7.02613729      10.64133830       7.18127468      -0.02300841       0.02189584       0.11239317
V        5.60723984       9.20378301       8.65289127       0.09339200      -0.05099738      -0.01725757
V        7.03517055      10.71654907      10.23805939       0.33406352      -0.28022210      -0.16957000
V        8.59642612       0.08289515      -0.27956835      -0.03528204      -0.01231104       0.05093235
V       10.13884604       1.50604126       1.30307692      -0.08246881      -0.12465899       0.09987606
V        8.56237468       0.04950121       2.69612290      -0.20551906       0.25183789       0.18750304
V        9.69578025       1.96683649       4.39220321       0.11090338       0.12119217       0.11014246
V        8.56005260      -0.05051633       5.66862461      -0.44183777      -0.11818863       0.01286261
V        8.57742709      -0.00178106       8.84323194       0.04356934      -0.06495468       0.04668207
V        8.64581118       3.10128672      -0.31537774      -0.02682903       0.04049686      -0.00848087
V       10.13827776       4.47573237       1.25393619      -0.01107179       0.01997611      -0.03147401
V        8.59978735       3.15559831       2.60644116      -0.02175440      -0.04809102       0.00790998
V       10.17507375       4.62725310       4.21750579      -0.10614366       0.07600854      -0.03120865
V       10.18619147       4.61789913       7.17760586       0.01027080      -0.01892355      -0.00735752
V        8.66427124       3.23287742       8.81275167       0.00367432      -0.00499007      -0.00150167
V       10.14142472       4.57487803      10.17445381      -0.09555264       0.02647570      -0.01693343
V        8.67119298       6.13956989      -0.40687900      -0.05465099      -0.02424476      -0.03000904
V       10.19525034       7.70992144       1.09879747      -0.02369337      -0.05222461      -0.04060465
V        8.67122523       6.13993577       2.59896247      -0.00999648      -0.03511291      -0.00177404
V       10.18553266       7.54073197       4.13175557      -0.00243408      -0.06876417       0.09070217
V        8.67554414       6.16752036       5.62657049      -0.04066703      -0.04383438       0.08470214
V       10.21303718       7.57127002       7.14956929      -0.13198114       0.05448594       0.29020085
V        8.70363092       6.13992281       8.64886554      -0.04343565       0.10113271       0.05274811
V       10.16399804       7.66582425      10.19180421      -0.06009184       0.09797825      -0.07323920
V        8.59757175       9.16738428      -0.39285854       0.00839157       0.01370303      -0.03299879
V       10.14146882      10.69421199       1.16424437      -0.02871429      -0.04466996       0.11106030
V        9.87211833      10.26542050       4.32755931      -0.18449824      -0.85976256      -0.13025372
V        8.52235454       9.03904160       5.69603324      -0.16408269      -0.07605414       0.24966624
V        8.62728631       9.07983982       8.70513985      -0.13262719       0.45084124       0.23489028
V       10.12971861      10.58429814      10.31658399      -0.02534082       0.08050145       0.04540514
W        0.96310392      10.68180694       1.14432141      -0.01717283       0.09902019       0.03262303
W        4.14278670       7.69971959       4.05479937      -0.07126772      -0.03728363      -0.02132576
W       10.11646246       1.58912174      10.30388362       0.00343513      -0.02416521       0.01402256
W       10.09296094      10.59373728       7.30021364      -0.03314454      -0.00606541      -0.19226131
Zr      -0.31629330       6.03009463      -0.35324282      -0.00439615       0.05477317      -0.05687194
Zr       7.05732751       1.65542671       7.15748299      -0.06911819      -0.01312163       0.11525910
