 vasp.6.4.2 20Jul23 (build Sep 20 2024 16:56:05) complex                         
 executed on              LinuxNV date 2024.12.10  16:21:03
 running    4 mpi-ranks, with    8 threads/rank, on    1 nodes
 distrk:  each k-point on    4 cores,    1 groups
 distr:  one band on NCORE=   1 cores,    4 groups
 OpenACC runtime initialized ...    4 GPUs detected


--------------------------------------------------------------------------------------------------------


 INCAR:
   ENCUT = 520.000000
   POTIM = 0.200000
   SIGMA = 0.200000
   EDIFF = 1.00e-06
   EDIFFG = -1.00e-02
   ALGO = Normal
   GGA = PE
   PREC = Accurate
   IBRION = 2
   ISIF = 2
   ISMEAR = 1
   LORBIT = 11
   NELM = 100
   NSW = -1
   LCHARG = .TRUE.
   LWAVE = .FALSE.
   LREAL = .FALSE.
   NSIM = 128

 POTCAR:    PAW_PBE V_pv 07Sep2000                
 POTCAR:    PAW_PBE Cr_pv 02Aug2007               
 POTCAR:    PAW_PBE Ti_pv 07Sep2000               
 POTCAR:    PAW_PBE V_pv 07Sep2000                
   SHA256 =  1175d3c8cb4ffd1d150a520fa74fae5c3ec72c0849b5615a94a5372dd2cf07f7 V_pv/POTCAR           
   COPYR  = (c) Copyright 07Sep2000 Georg Kresse                                                    
   COPYR  = This file is part of the software VASP. Any use, copying, and all other rights are regul
   COPYR  = If you do not have a valid VASP license, you may not use, copy or distribute this file. 
   VRHFIN =V: p6 d4 s1                                                                              
   LEXCH  = PE                                                                                      
   EATOM  =  1321.6206 eV,   97.1364 Ry                                                             
                                                                                                    
   TITEL  = PAW_PBE V_pv 07Sep2000                                                                  
   LULTRA =        F    use ultrasoft PP ?                                                          
   IUNSCR =        1    unscreen: 0-lin 1-nonlin 2-no                                               
   RPACOR =    1.700    partial core radius                                                         
   POMASS =   50.941; ZVAL   =   11.000    mass and valenz                                          
   RCORE  =    2.300    outmost cutoff radius                                                       
   RWIGS  =    2.300; RWIGS  =    1.217    wigner-seitz radius (au A)                               
   ENMAX  =  263.673; ENMIN  =  197.755 eV                                                          
   RCLOC  =    1.779    cutoff for local pot                                                        
   LCOR   =        T    correct aug charges                                                         
   LPAW   =        T    paw PP                                                                      
   EAUG   =  598.473                                                                                
   DEXC   =    0.000                                                                                
   RMAX   =    2.359    core radius for proj-oper                                                   
   RAUG   =    1.300    factor for augmentation sphere                                              
   RDEP   =    2.430    radius for radial grids                                                     
   RDEPT  =    1.700    core radius for aug-charge                                                  
                                                                                                    
   Atomic configuration                                                                             
    8 entries                                                                                       
     n  l   j            E        occ.                                                              
     1  0  0.50     -5360.7193   2.0000                                                             
     2  0  0.50      -598.4546   2.0000                                                             
     2  1  1.50      -499.0155   6.0000                                                             
     3  0  0.50       -66.5711   2.0000                                                             
     3  1  1.50       -40.5282   6.0000                                                             
     3  2  2.50        -2.4291   4.0000                                                             
     4  0  0.50        -3.8743   1.0000                                                             
     4  3  2.50        -1.3606   0.0000                                                             
   Description                                                                                      
     l       E           TYP  RCUT    TYP  RCUT                                                     
     1    -40.5282431     23  2.000                                                                 
     1      5.4423304     23  2.000                                                                 
     2     -2.4290905     23  2.300                                                                 
     2     -1.0472488     23  2.300                                                                 
     0     -3.8742754     23  2.300                                                                 
     0     27.2116520     23  2.300                                                                 
  local pseudopotential read in
  partial core-charges read in
  partial kinetic energy density read in
  atomic valenz-charges read in
  non local Contribution for L=            1  read in
    real space projection operators read in
  non local Contribution for L=            1  read in
    real space projection operators read in
  non local Contribution for L=            2  read in
    real space projection operators read in
  non local Contribution for L=            2  read in
    real space projection operators read in
  non local Contribution for L=            0  read in
    real space projection operators read in
  non local Contribution for L=            0  read in
    real space projection operators read in
    PAW grid and wavefunctions read in
 
   number of l-projection  operators is LMAX  =            6
   number of lm-projection operators is LMMAX =           18
 
 POTCAR:    PAW_PBE Cr_pv 02Aug2007               
   SHA256 =  c9a7df34d3cdbacf1090e328ef39c0b420964e11c23f63548d1ac9dd218cdba0 Cr_pv/POTCAR          
   COPYR  = (c) Copyright 02Aug2007 Georg Kresse                                                    
   COPYR  = This file is part of the software VASP. Any use, copying, and all other rights are regul
   COPYR  = If you do not have a valid VASP license, you may not use, copy or distribute this file. 
   VRHFIN =Cr : p6d5s1                                                                              
   LEXCH  = PE                                                                                      
   EATOM  =  1647.9177 eV,  121.1185 Ry                                                             
                                                                                                    
   TITEL  = PAW_PBE Cr_pv 02Aug2007                                                                 
   LULTRA =        F    use ultrasoft PP ?                                                          
   IUNSCR =        1    unscreen: 0-lin 1-nonlin 2-no                                               
   RPACOR =    2.080    partial core radius                                                         
   POMASS =   51.996; ZVAL   =   12.000    mass and valenz                                          
   RCORE  =    2.300    outmost cutoff radius                                                       
   RWIGS  =    2.500; RWIGS  =    1.323    wigner-seitz radius (au A)                               
   ENMAX  =  265.681; ENMIN  =  199.261 eV                                                          
   ICORE  =        3    local potential                                                             
   LCOR   =        T    correct aug charges                                                         
   LPAW   =        T    paw PP                                                                      
   EAUG   =  519.424                                                                                
   DEXC   =    0.000                                                                                
   RMAX   =    2.356    core radius for proj-oper                                                   
   RAUG   =    1.300    factor for augmentation sphere                                              
   RDEP   =    2.447    radius for radial grids                                                     
   RDEPT  =    1.882    core radius for aug-charge                                                  
                                                                                                    
   Atomic configuration                                                                             
    8 entries                                                                                       
     n  l   j            E        occ.                                                              
     1  0  0.50     -5880.4963   2.0000                                                             
     2  0  0.50      -667.0865   2.0000                                                             
     2  1  1.50      -560.6250   6.0000                                                             
     3  0  0.50       -73.9860   2.0000                                                             
     3  1  1.50       -45.4378   6.0000                                                             
     3  2  2.50        -2.9137   5.0000                                                             
     4  0  0.50        -4.0071   1.0000                                                             
     4  3  2.50        -1.3606   0.0000                                                             
   Description                                                                                      
     l       E           TYP  RCUT    TYP  RCUT                                                     
     1    -45.4377911     23  2.000                                                                 
     1      1.3605826     23  2.000                                                                 
     2     -2.9136672     23  2.300                                                                 
     2     -4.2742498     23  2.300                                                                 
     0     -4.0071320     23  2.300                                                                 
     0      9.4498803     23  2.300                                                                 
     3      2.7211652     23  2.300                                                                 
  local pseudopotential read in
  partial core-charges read in
  partial kinetic energy density read in
  atomic valenz-charges read in
  non local Contribution for L=            1  read in
    real space projection operators read in
  non local Contribution for L=            1  read in
    real space projection operators read in
  non local Contribution for L=            2  read in
    real space projection operators read in
  non local Contribution for L=            2  read in
    real space projection operators read in
  non local Contribution for L=            0  read in
    real space projection operators read in
  non local Contribution for L=            0  read in
    real space projection operators read in
    PAW grid and wavefunctions read in
 
   number of l-projection  operators is LMAX  =            6
   number of lm-projection operators is LMMAX =           18
 
 POTCAR:    PAW_PBE Ti_pv 07Sep2000               
   SHA256 =  f757a1b2c6d082f4c628fa3d987464a8763bf92e53844ac0500b0e2ddc9ce5c0 Ti_pv/POTCAR          
   COPYR  = (c) Copyright 07Sep2000 Georg Kresse                                                    
   COPYR  = This file is part of the software VASP. Any use, copying, and all other rights are regul
   COPYR  = If you do not have a valid VASP license, you may not use, copy or distribute this file. 
   VRHFIN =Ti: d3 s1                                                                                
   LEXCH  = PE                                                                                      
   EATOM  =  1042.5995 eV,   76.6289 Ry                                                             
                                                                                                    
   TITEL  = PAW_PBE Ti_pv 07Sep2000                                                                 
   LULTRA =        F    use ultrasoft PP ?                                                          
   IUNSCR =        1    unscreen: 0-lin 1-nonlin 2-no                                               
   RPACOR =    2.200    partial core radius                                                         
   POMASS =   47.880; ZVAL   =   10.000    mass and valenz                                          
   RCORE  =    2.500    outmost cutoff radius                                                       
   RWIGS  =    2.500; RWIGS  =    1.323    wigner-seitz radius (au A)                               
   ENMAX  =  222.335; ENMIN  =  166.751 eV                                                          
   RCLOC  =    1.701    cutoff for local pot                                                        
   LCOR   =        T    correct aug charges                                                         
   LPAW   =        T    paw PP                                                                      
   EAUG   =  482.848                                                                                
   DEXC   =    0.000                                                                                
   RMAX   =    2.564    core radius for proj-oper                                                   
   RAUG   =    1.300    factor for augmentation sphere                                              
   RDEP   =    2.538    radius for radial grids                                                     
   RDEPT  =    1.952    core radius for aug-charge                                                  
                                                                                                    
   Atomic configuration                                                                             
    8 entries                                                                                       
     n  l   j            E        occ.                                                              
     1  0  0.50     -4865.3608   2.0000                                                             
     2  0  0.50      -533.1368   2.0000                                                             
     2  1  1.50      -440.5031   6.0000                                                             
     3  0  0.50       -59.3186   2.0000                                                             
     3  1  1.50       -35.7012   6.0000                                                             
     3  2  2.50        -1.9157   3.0000                                                             
     4  0  0.50        -3.7291   1.0000                                                             
     4  3  2.50        -1.3606   0.0000                                                             
   Description                                                                                      
     l       E           TYP  RCUT    TYP  RCUT                                                     
     1    -35.7012140     23  2.300                                                                 
     1     -1.3605826     23  2.300                                                                 
     2     -1.9156996     23  2.500                                                                 
     2     -0.4063033     23  2.500                                                                 
     0     -3.7290856     23  2.500                                                                 
     0     20.4087390     23  2.500                                                                 
  local pseudopotential read in
  partial core-charges read in
  partial kinetic energy density read in
  atomic valenz-charges read in
  non local Contribution for L=            1  read in
    real space projection operators read in
  non local Contribution for L=            1  read in
    real space projection operators read in
  non local Contribution for L=            2  read in
    real space projection operators read in
  non local Contribution for L=            2  read in
    real space projection operators read in
  non local Contribution for L=            0  read in
    real space projection operators read in
  non local Contribution for L=            0  read in
    real space projection operators read in
    PAW grid and wavefunctions read in
 
   number of l-projection  operators is LMAX  =            6
   number of lm-projection operators is LMMAX =           18
 
 -----------------------------------------------------------------------------
|                                                                             |
|               ----> ADVICE to this user running VASP <----                  |
|                                                                             |
|     You have a (more or less) 'large supercell' and for larger cells it     |
|     might be more efficient to use real-space projection operators.         |
|     Therefore, try LREAL= Auto in the INCAR file.                           |
|     Mind: For very accurate calculation, you might also keep the            |
|     reciprocal projection scheme (i.e. LREAL=.FALSE.).                      |
|                                                                             |
 -----------------------------------------------------------------------------

  PAW_PBE V_pv 07Sep2000                :
 energy of atom  1       EATOM=-1321.6206
 kinetic energy error for atom=    0.0054 (will be added to EATOM!!)
  PAW_PBE Cr_pv 02Aug2007               :
 energy of atom  2       EATOM=-1647.9177
 kinetic energy error for atom=    0.0057 (will be added to EATOM!!)
  PAW_PBE Ti_pv 07Sep2000               :
 energy of atom  3       EATOM=-1042.5995
 kinetic energy error for atom=    0.0019 (will be added to EATOM!!)
 
 
 POSCAR: V  Cr Ti
  positions in cartesian coordinates
  No initial velocities read in
 exchange correlation table for  LEXCH =        8
   RHO(1)=    0.500       N(1)  =     2000
   RHO(2)=  100.500       N(2)  =     4000
 


--------------------------------------------------------------------------------------------------------


 ion  position               nearest neighbor table
   1  0.008  0.996  0.006-   2 2.55  22 2.61 114 2.61   5 2.62  28 2.63  95 2.64 115 2.68  21 2.91
                           118 3.03
   2  0.993  0.006  0.199-  24 2.28  96 2.50   6 2.51 110 2.54   1 2.55   3 2.57  29 2.57   7 2.86
                            95 2.89
   3  0.008  0.997  0.398-   2 2.57   4 2.61  30 2.64   7 2.64  19 2.65 111 2.67  97 2.70
   4  0.004  0.002  0.599-   8 2.55  25 2.56  98 2.58  31 2.58 112 2.59  20 2.60   3 2.61   5 2.69
                            19 2.90 116 3.00
   5  1.000  0.004  0.804- 118 2.49 116 2.53  27 2.58 113 2.60   1 2.62  26 2.62  21 2.63   4 2.69
                            98 2.88 114 2.91 115 2.92
   6  0.005  0.203  0.199-   2 2.51 115 2.53   9 2.54  28 2.55  34 2.59  99 2.59  95 2.60   7 2.61
                           119 2.93
   7  0.004  0.199  0.399-  35 2.58 100 2.59   6 2.61  10 2.62  96 2.62  29 2.62   8 2.62   3 2.64
                             2 2.86
   8  0.005  0.199  0.601-  30 2.49   4 2.55  97 2.56  36 2.60  11 2.60 116 2.61   7 2.62 122 2.67

   9  0.001  0.397  0.198-  14 2.52 119 2.53   6 2.54 117 2.54  33 2.58  10 2.61  39 2.63 102 2.63
                           101 2.88 115 2.96
  10  0.005  0.402  0.402-  34 2.56  15 2.56  40 2.58  11 2.60 103 2.60   9 2.61   7 2.62  99 2.64

  11  0.003  0.399  0.600-  35 2.57 100 2.59  10 2.60   8 2.60  41 2.61 104 2.62  16 2.64  12 2.69
                           122 3.01
  12  0.008  0.400  0.809-  36 2.52  37 2.53 117 2.56 116 2.57  17 2.63 124 2.66  11 2.69 122 2.69
                            32 2.86 123 2.98
  13  0.004  0.611  0.009-  43 2.54  37 2.62  14 2.63 124 2.65 105 2.66  17 2.66 117 2.71
  14  0.000  0.592  0.203-  18 2.44   9 2.52 101 2.52  15 2.56  38 2.58  44 2.61  13 2.63 106 2.73
                           117 2.94
  15  0.004  0.599  0.403-  19 2.55  16 2.55  14 2.56  10 2.56  39 2.58  45 2.59 102 2.62 107 2.65

  16  0.005  0.603  0.601-  15 2.55  46 2.56  40 2.58 103 2.58  20 2.60  17 2.60 108 2.63  11 2.64

  17  0.002  0.597  0.798-  41 2.53 104 2.57 109 2.58  42 2.59  16 2.60  12 2.63  21 2.64  13 2.66
                           124 2.93
  18  0.950  0.755  0.199-  24 2.18 111 2.38 105 2.42  14 2.44  19 2.44 106 2.47
  19  0.995  0.794  0.411-  20 2.43  18 2.44  15 2.55 112 2.56  25 2.63  44 2.64   3 2.65 106 2.70
                           107 2.85   4 2.90
  20  0.003  0.803  0.603-  19 2.43  26 2.55 113 2.59  16 2.60   4 2.60  45 2.61 107 2.61  21 2.64

  21  0.000  0.801  0.805- 108 2.57  22 2.60  46 2.61 114 2.62   5 2.63  20 2.64  17 2.64 109 2.76
                            42 2.87   1 2.91
  22  0.207  0.008  0.991-  26 2.42  23 2.44  27 2.52  47 2.55  21 2.60   1 2.61  42 2.62  53 2.67
                            52 2.87
  23  0.246  0.041  0.200-  24 2.18  48 2.41  28 2.43  22 2.44  54 2.45  53 2.54
  24  0.098  0.897  0.198-  23 2.18  18 2.18  43 2.27   2 2.28
  25  0.202  0.003  0.600-  50 2.51   4 2.56  56 2.57  45 2.62  26 2.62  19 2.63  30 2.63  55 2.89

  26  0.199  0.999  0.799-  22 2.42  20 2.55  46 2.61  52 2.62  25 2.62   5 2.62  51 2.63  31 2.63

  27  0.199  0.202  0.002-  22 2.52  28 2.53 115 2.54  32 2.55  31 2.57   5 2.58  58 2.62  52 2.64
                           116 2.91
  28  0.204  0.210  0.201-  23 2.43  33 2.46  27 2.53   6 2.55  59 2.59   1 2.63  29 2.64  53 2.69
                           115 2.92
  29  0.202  0.191  0.396-   2 2.57   7 2.62  54 2.63  28 2.64  60 2.64  30 2.65  34 2.70  55 2.87

  30  0.200  0.206  0.603-   8 2.49  55 2.54  35 2.55  61 2.58  31 2.63  25 2.63   3 2.64  29 2.65

  31  0.195  0.201  0.802- 116 2.43  27 2.57   4 2.58  57 2.60  56 2.60  36 2.62  26 2.63  30 2.63

  32  0.195  0.396  0.998- 117 2.50 116 2.50  27 2.55  33 2.60  57 2.60  36 2.62  63 2.64  37 2.66
                            12 2.86 115 2.95
  33  0.201  0.398  0.200-  28 2.46  38 2.55 115 2.57   9 2.58  58 2.58  32 2.60  34 2.60  64 2.61
                           117 2.94
  34  0.202  0.400  0.401-  35 2.56  10 2.56  59 2.57   6 2.59  65 2.60  33 2.60  39 2.60  29 2.70

  35  0.201  0.401  0.598-  30 2.55  34 2.56  60 2.56  11 2.57  40 2.58   7 2.58  66 2.62  36 2.62

  36  0.201  0.404  0.800-  12 2.52  62 2.57  41 2.58  61 2.59   8 2.60  35 2.62  31 2.62  32 2.62
                           116 2.99
  37  0.200  0.603  0.999-  12 2.53  41 2.57  68 2.60  62 2.60  38 2.61  13 2.62  32 2.66  42 2.67
                            43 2.87 117 2.99
  38  0.196  0.591  0.194- 117 2.43  33 2.55  14 2.58  43 2.59  63 2.60  37 2.61  69 2.62  39 2.62

  39  0.202  0.601  0.401-  64 2.57  15 2.58  70 2.59  40 2.60  34 2.60  38 2.62   9 2.63  44 2.70

  40  0.203  0.601  0.601-  65 2.57  71 2.57  16 2.58  35 2.58  10 2.58  39 2.60  41 2.61  45 2.61

  41  0.200  0.602  0.801-  17 2.53  67 2.56  46 2.56  37 2.57  36 2.58  66 2.60  11 2.61  40 2.61

  42  0.191  0.805  0.999-  43 2.57  46 2.59  17 2.59  22 2.62  37 2.67  48 2.70  67 2.74  21 2.87

  43  0.211  0.796  0.199-  24 2.27  68 2.50  49 2.51  13 2.54  42 2.57  38 2.59  44 2.60  69 2.86
                            37 2.87
  44  0.195  0.804  0.395-  50 2.55  43 2.60  14 2.61  69 2.63  45 2.64  19 2.64  39 2.70
  45  0.202  0.801  0.600-  70 2.58  15 2.59  51 2.59  20 2.61  40 2.61  25 2.62  44 2.64  46 2.64
                            50 2.88
  46  0.199  0.799  0.801-  41 2.56  16 2.56  47 2.58  42 2.59  21 2.61  26 2.61  71 2.63  45 2.64

  47  0.401  0.999  0.995-  51 2.54  48 2.54  22 2.55  72 2.57  46 2.58  67 2.60  52 2.64  77 2.65

  48  0.414  0.002  0.196-  23 2.41  73 2.45  47 2.54  78 2.59  68 2.62  49 2.68  42 2.70  53 2.74
                            74 2.89  67 2.91  77 2.91
  49  0.390  0.000  0.393-  79 2.48  43 2.51  48 2.68  50 2.68  69 2.69  54 2.70  74 2.70
  50  0.391  0.994  0.597-  25 2.51  44 2.55  70 2.55  51 2.57 120 2.63  55 2.64 121 2.66  49 2.68
                            45 2.88
  51  0.401  0.000  0.800-  47 2.54  50 2.57  45 2.59  71 2.60  76 2.61  26 2.63  56 2.64  75 2.68
                           121 3.02
  52  0.401  0.203  0.998-  56 2.52  53 2.52  57 2.60  81 2.60  26 2.62  47 2.64  76 2.64  27 2.64
                            22 2.87  80 2.90
  53  0.411  0.213  0.198-  52 2.52  23 2.54  58 2.54  77 2.55  82 2.59  54 2.66  22 2.67  28 2.69
                            48 2.74  81 2.81
  54  0.416  0.220  0.407-  23 2.45  83 2.47  59 2.52  78 2.58  29 2.63  53 2.66  55 2.68  79 2.70
                            49 2.70  82 2.87
  55  0.389  0.196  0.595-  79 2.52  30 2.54  60 2.60  56 2.63  50 2.64  54 2.68  84 2.68  29 2.87
                            25 2.89
  56  0.395  0.201  0.801-  52 2.52  80 2.56  25 2.57  31 2.60  61 2.61  55 2.63  51 2.64 121 2.67

  57  0.398  0.402  0.999-  62 2.58  58 2.58  61 2.59  86 2.59  31 2.60  52 2.60  32 2.60  80 2.61

  58  0.402  0.405  0.200-  63 2.52  53 2.54  33 2.58  57 2.58  81 2.60  87 2.61  27 2.62  59 2.63
                            86 2.91
  59  0.402  0.407  0.403-  54 2.52  64 2.53  88 2.57  34 2.57  28 2.59  60 2.60  58 2.63  82 2.65

  60  0.398  0.400  0.599-  35 2.56  55 2.60  59 2.60  61 2.60  65 2.60  83 2.62  29 2.64  89 2.69

  61  0.400  0.404  0.801-  84 2.52  85 2.55  30 2.58  66 2.58  57 2.59  36 2.59  60 2.60  56 2.61

  62  0.399  0.601  0.998-  85 2.56  36 2.57  57 2.58  66 2.58  67 2.59  37 2.60  91 2.61  63 2.62

  63  0.400  0.598  0.199-  58 2.52  86 2.54  68 2.59  38 2.60  62 2.62  64 2.62  32 2.64  92 2.65

  64  0.400  0.601  0.401-  59 2.53  39 2.57  69 2.58  65 2.58  87 2.59  33 2.61  63 2.62  93 2.63

  65  0.401  0.602  0.601-  40 2.57  64 2.58  88 2.60  66 2.60  34 2.60  70 2.60  60 2.60  94 2.61

  66  0.400  0.602  0.801-  71 2.57  61 2.58  62 2.58  90 2.59  65 2.60  41 2.60  35 2.62  89 2.64

  67  0.398  0.799  0.996-  41 2.56  71 2.59  62 2.59  47 2.60  68 2.61  90 2.63  73 2.63  42 2.74
                            48 2.91
  68  0.404  0.799  0.199-  43 2.50  74 2.51  91 2.53  63 2.59  37 2.60  67 2.61  69 2.61  48 2.62

  69  0.394  0.795  0.395-  64 2.58  70 2.59  68 2.61  38 2.62  44 2.63  92 2.63 120 2.65  49 2.69
                            43 2.86
  70  0.401  0.802  0.599-  50 2.55  45 2.58  39 2.59  69 2.59  71 2.60  65 2.60  93 2.60  75 2.68
                           120 2.98
  71  0.401  0.800  0.799-  40 2.57  66 2.57  72 2.58  67 2.59  51 2.60  94 2.60  70 2.60  46 2.63

  72  0.599  0.998  0.997-  75 2.51  76 2.57  47 2.57  73 2.58  71 2.58  90 2.58  99 2.62  95 2.65
                           119 2.99
  73  0.603  0.001  0.197-  48 2.45  96 2.54  74 2.57  72 2.58  91 2.61  77 2.61 100 2.61  67 2.63

  74  0.595  0.995  0.391-  68 2.51  73 2.57  92 2.58  97 2.63  78 2.63 120 2.65 122 2.67  49 2.70
                            48 2.89
  75  0.610  0.001  0.808-  72 2.51  94 2.54 119 2.56 118 2.58  51 2.68  70 2.68 120 2.70 121 2.72
                            95 2.89 123 3.00
  76  0.604  0.198  0.001-  77 2.56  72 2.57 119 2.59 102 2.60  51 2.61  80 2.61  52 2.64 121 2.65

  77  0.605  0.203  0.199-  53 2.55  76 2.56  78 2.59  81 2.59  73 2.61  99 2.61 103 2.62  47 2.65
                           102 2.90  48 2.91
  78  0.606  0.204  0.399-  79 2.51 104 2.58  54 2.58  48 2.59  77 2.59 100 2.61  74 2.63  82 2.65
                           122 2.98
  79  0.578  0.198  0.580-  49 2.48  78 2.51  55 2.52  83 2.54  54 2.70 120 2.70 121 2.72 122 2.79
                           124 2.84
  80  0.596  0.395  0.997- 106 2.55  56 2.56  81 2.59  76 2.61  57 2.61  84 2.64  85 2.66 101 2.73
                           105 2.88  52 2.90 121 2.98
  81  0.600  0.401  0.200-  82 2.58  86 2.59  77 2.59  80 2.59  58 2.60  52 2.60 102 2.61 107 2.61
                           106 2.81  53 2.81
  82  0.607  0.409  0.404- 108 2.58  87 2.58  81 2.58  53 2.59  83 2.60 103 2.62  59 2.65  78 2.65
                            54 2.87 107 2.89
  83  0.603  0.408  0.602-  54 2.47  79 2.54  88 2.55  84 2.59  82 2.60  60 2.62 104 2.64 109 2.80
                           124 3.01
  84  0.594  0.406  0.798- 105 2.43  61 2.52  89 2.53  83 2.59  80 2.64 121 2.67  55 2.68 124 2.71

  85  0.596  0.600  0.998-  61 2.55  62 2.56 111 2.58 105 2.58  90 2.59  89 2.61  86 2.63  80 2.66

  86  0.596  0.599  0.201-  63 2.54 106 2.55  87 2.59  81 2.59  57 2.59  91 2.60  85 2.63 112 2.64
                            58 2.91
  87  0.601  0.605  0.403-  92 2.56  82 2.58  88 2.58  64 2.59  86 2.59 113 2.59  58 2.61 107 2.61

  88  0.600  0.603  0.601-  83 2.55  59 2.57  93 2.57  87 2.58  65 2.60  89 2.60 108 2.63 114 2.63

  89  0.606  0.607  0.804-  84 2.53  94 2.54 110 2.59  88 2.60  85 2.61  66 2.64 109 2.66  60 2.69

  90  0.602  0.801  0.998-  94 2.54  72 2.58  66 2.59  85 2.59  96 2.59  67 2.63  91 2.63 110 2.68

  91  0.600  0.800  0.200- 111 2.42  68 2.53  86 2.60  62 2.61  73 2.61  90 2.63  92 2.64  97 2.66

  92  0.602  0.803  0.404-  87 2.56 112 2.57  74 2.58  93 2.60  69 2.63  91 2.64  63 2.65  98 2.66
                           120 2.99
  93  0.603  0.802  0.604-  88 2.57  94 2.58  92 2.60  70 2.60 113 2.61 118 2.62  64 2.63 120 2.67
                           114 2.89
  94  0.602  0.800  0.802-  89 2.54 114 2.54  75 2.54  90 2.54  93 2.58  71 2.60  65 2.61  95 2.61
                           118 3.00
  95  0.805  0.002  0.999- 118 2.49 119 2.54   6 2.60  94 2.61  96 2.63   1 2.64  72 2.65 110 2.66
                           114 2.89  75 2.89   2 2.89 115 2.93
  96  0.799  0.002  0.199-   2 2.50  73 2.54 111 2.58  99 2.59  90 2.59   7 2.62  95 2.63  97 2.63

  97  0.805  0.005  0.404-   8 2.56 112 2.59 100 2.59  74 2.63  96 2.63  91 2.66  98 2.66   3 2.70
                           122 2.96
  98  0.811  0.003  0.611- 113 2.52 116 2.55   4 2.58 118 2.59  97 2.66  92 2.66 122 2.67 120 2.74
                             5 2.88 123 2.98
  99  0.803  0.201  0.195- 119 2.46 102 2.54  96 2.59   6 2.59  77 2.61 100 2.61  72 2.62  10 2.64

 100  0.805  0.202  0.397- 103 2.58   7 2.59  11 2.59  97 2.59  78 2.61  73 2.61  99 2.61 122 2.65

 101  0.810  0.396  0.007-  14 2.52 119 2.53 117 2.56 102 2.59 105 2.62 121 2.68 124 2.71  80 2.73
                             9 2.88 123 2.95
 102  0.801  0.398  0.203-  99 2.54 106 2.54 103 2.55 101 2.59  76 2.60  81 2.61  15 2.62   9 2.63
                            77 2.90 119 2.99
 103  0.806  0.403  0.403- 104 2.48 102 2.55  16 2.58 100 2.58 107 2.60  10 2.60  77 2.62  82 2.62

 104  0.803  0.406  0.594- 103 2.48 108 2.55  17 2.57  78 2.58  11 2.62  83 2.64 124 2.67 122 2.68

 105  0.785  0.583  0.990-  18 2.42  84 2.43  85 2.58 101 2.62 109 2.64  13 2.66 110 2.68 106 2.70
                           124 2.88  80 2.88
 106  0.788  0.588  0.200-  18 2.47 102 2.54 107 2.54  86 2.55  80 2.55 105 2.70  19 2.70  14 2.73
                           111 2.76  81 2.81
 107  0.801  0.601  0.404- 106 2.54 108 2.56 103 2.60  87 2.61  20 2.61  81 2.61 112 2.64  15 2.65
                            19 2.85  82 2.89
 108  0.805  0.606  0.604- 104 2.55 107 2.56  21 2.57  82 2.58 113 2.58 109 2.62  88 2.63  16 2.63

 109  0.820  0.624  0.815-  17 2.58 114 2.59 108 2.62 105 2.64  89 2.66 124 2.69  21 2.76  83 2.80
                           110 2.81
 110  0.810  0.801  0.004-   2 2.54  89 2.59 114 2.66  95 2.66 105 2.68 111 2.68  90 2.68 109 2.81

 111  0.787  0.800  0.201-  18 2.38  91 2.42 112 2.57  85 2.58  96 2.58   3 2.67 110 2.68 106 2.76

 112  0.799  0.804  0.404- 113 2.54  19 2.56  92 2.57 111 2.57  97 2.59   4 2.59 107 2.64  86 2.64

 113  0.803  0.803  0.601-  98 2.52 112 2.54 114 2.57 108 2.58  87 2.59  20 2.59   5 2.60  93 2.61
                           118 2.99
 114  0.800  0.811  0.800- 118 2.39  94 2.54 113 2.57 109 2.59   1 2.61  21 2.62  88 2.63 110 2.66
                            95 2.89  93 2.89   5 2.91
 115  0.003  0.199  0.003-   6 2.53  27 2.54 118 2.55  33 2.57 119 2.59 117 2.61 116 2.62   1 2.68
                           123 2.78  28 2.92   5 2.92  95 2.93  32 2.95   9 2.96
 116  0.008  0.201  0.804-  31 2.43  32 2.50 123 2.52   5 2.53  98 2.55  12 2.57   8 2.61 115 2.62
                            27 2.91  36 2.99   4 3.00 118 3.04 117 3.04 122 3.12
 117  0.009  0.403  0.007-  38 2.43  32 2.50 123 2.52   9 2.54  12 2.56 101 2.56 115 2.61  13 2.71
                            33 2.94  14 2.94  37 2.99 116 3.04 119 3.05 124 3.13
 118  0.808  1.000  0.808- 114 2.39  95 2.49   5 2.49 123 2.52 115 2.55  75 2.58  98 2.59  93 2.62
                           113 2.99  94 3.00 119 3.01   1 3.03 116 3.04
 119  0.805  0.200  0.006-  99 2.46 123 2.52   9 2.53 101 2.53  95 2.54  75 2.56  76 2.59 115 2.59
                             6 2.93  72 2.99 102 2.99 118 3.01 117 3.05 121 3.15
 120  0.596  0.003  0.598-  50 2.63  74 2.65  69 2.65  93 2.67  75 2.70  79 2.70  98 2.74 123 2.80
                           121 2.96  70 2.98  92 2.99 122 2.99
 121  0.599  0.202  0.796-  76 2.65  50 2.66  56 2.67  84 2.67 101 2.68  79 2.72  75 2.72 123 2.79
                           120 2.96  80 2.98  51 3.02 124 3.04 119 3.15
 122  0.799  0.200  0.598- 100 2.65  74 2.67  98 2.67   8 2.67 104 2.68  12 2.69 123 2.78  79 2.79
                            97 2.96  78 2.98 120 2.99  11 3.01 124 3.04 116 3.12
 123  0.820  0.201  0.819- 119 2.52 117 2.52 116 2.52 118 2.52 115 2.78 122 2.78 121 2.79 120 2.80
                           124 2.83 101 2.95  12 2.98  98 2.98  75 3.00
 124  0.803  0.407  0.801-  13 2.65  12 2.66 104 2.67 109 2.69  84 2.71 101 2.71 123 2.83  79 2.84
                           105 2.88  17 2.93  83 3.01 121 3.04 122 3.04 117 3.13
 
  LATTYP: Found a base centered monoclinic cell.
 ALAT       =    15.0482117230
 B/A-ratio  =     1.4081981607
 C/A-ratio  =     1.6569313785
 COS(beta)  =    -0.9052205732
  
  Lattice vectors:
  
 A1 = (   4.3071057600,   6.1309426610, -10.6177469370)
 A2 = ( -12.9951470410,   0.0135483230,  -0.0223585750)
 A3 = (  13.0316404910,  -0.0404660660,  21.2572762500)


Analysis of symmetry for initial positions (statically):
=====================================================================
 Subroutine PRICEL returns:
 Original cell was already a primitive cell.
 

 Routine SETGRP: Setting up the symmetry group for a 
 base centered monoclinic supercell.


 Subroutine GETGRP returns: Found  1 space group operations
 (whereof  1 operations were pure point group operations)
 out of a pool of  4 trial point group operations.


The static configuration has the point symmetry C_1 .


Analysis of symmetry for dynamics (positions and initial velocities):
=====================================================================
 Subroutine PRICEL returns:
 Original cell was already a primitive cell.
 

 Routine SETGRP: Setting up the symmetry group for a 
 base centered monoclinic supercell.


 Subroutine GETGRP returns: Found  1 space group operations
 (whereof  1 operations were pure point group operations)
 out of a pool of  4 trial point group operations.


The dynamic configuration has the point symmetry C_1 .


 Subroutine INISYM returns: Found  1 space group operations
 (whereof  1 operations are pure point group operations),
 and found     1 'primitive' translations


----------------------------------------------------------------------------------------

                                     Primitive cell                                     

  volume of cell :    1689.3617

  direct lattice vectors                    reciprocal lattice vectors
    12.995147041 -0.013548323  0.022358575     0.076899476  0.027363571  0.046994778
    -4.344442071 12.248515902 -0.022934774     0.000004010  0.081732338  0.047195846
    -4.307105760 -6.130942661 10.617746937    -0.000161924  0.000118924  0.094184924

  length of vectors
    12.995173338 12.996185776 12.995236356     0.094184943  0.094380205  0.094185138

  position of ions in fractional coordinates (direct lattice)
     0.008099112  0.996004875  0.006046675
     0.992532449  0.005945234  0.199418460
     0.007589953  0.996804547  0.397690493
     0.004327560  0.001738989  0.598615501
     0.999811882  0.003544875  0.804450846
     0.004576079  0.202548477  0.199167780
     0.004349794  0.199458922  0.399179535
     0.005249949  0.199291263  0.601049672
     0.001276198  0.396517117  0.197819322
     0.005271365  0.401967175  0.401796275
     0.003438819  0.398668533  0.599947100
     0.008468540  0.400329559  0.809314083
     0.004131944  0.610855839  0.008506273
     0.000307820  0.591598166  0.202671179
     0.003638939  0.599185772  0.403192019
     0.004659374  0.602538354  0.601068658
     0.002125850  0.596519869  0.798445618
     0.949718891  0.755433208  0.199273906
     0.994962671  0.794311301  0.411022360
     0.002914804  0.802579968  0.603353221
     0.000179846  0.801407461  0.804946297
     0.206545529  0.007697347  0.990808929
     0.246106501  0.041048394  0.199747991
     0.098319767  0.897254188  0.198493150
     0.201964615  0.003012774  0.599824828
     0.198594809  0.999479369  0.799365234
     0.198979502  0.202202622  0.001681013
     0.203940207  0.209812121  0.200734882
     0.201650249  0.190621891  0.395613427
     0.200002100  0.206107802  0.603382743
     0.194973050  0.201300887  0.802446839
     0.195264096  0.396168327  0.997753780
     0.200674580  0.397725127  0.199942130
     0.201613083  0.400308378  0.401317080
     0.200880124  0.400634430  0.597877978
     0.200547537  0.403767583  0.800228750
     0.200104982  0.602729700  0.999044286
     0.195856024  0.590650015  0.194112496
     0.202086239  0.600681394  0.400980373
     0.202972245  0.601239744  0.601304699
     0.199942424  0.602288772  0.801262545
     0.190550820  0.804665083  0.999105971
     0.211058550  0.795974782  0.198975974
     0.194984618  0.803881665  0.395413197
     0.201936074  0.801325671  0.599575716
     0.199345190  0.799252752  0.801462274
     0.401137024  0.999231122  0.995177070
     0.414279001  0.002354804  0.195972470
     0.390326891  0.000105284  0.392585175
     0.391279552  0.994442763  0.597476932
     0.401143266  0.000342472  0.800012367
     0.401276948  0.202876320  0.997636122
     0.411176867  0.212844014  0.198278242
     0.416248590  0.220051862  0.407136292
     0.388982978  0.196046502  0.594675049
     0.394809523  0.201329106  0.800959009
     0.397532182  0.401651406  0.998541454
     0.401839696  0.405431487  0.199956161
     0.401836427  0.407098108  0.402560189
     0.397894667  0.400153553  0.598886102
     0.400234835  0.404018912  0.801253548
     0.399329653  0.600579516  0.998406038
     0.400228996  0.598412539  0.199204777
     0.399845908  0.600813066  0.401336513
     0.400592904  0.602006879  0.600823343
     0.400218887  0.602483865  0.800627436
     0.398379848  0.798878491  0.996407708
     0.403979607  0.798580325  0.198631863
     0.394061458  0.795190558  0.394962970
     0.400665057  0.801664382  0.598893318
     0.401024032  0.800077453  0.798553904
     0.599385770  0.998210187  0.997216200
     0.602585335  0.001066097  0.197357903
     0.595486513  0.994856409  0.390916510
     0.610106884  0.000673496  0.808455351
     0.603841066  0.198336773  0.000761723
     0.604581820  0.203241914  0.199367505
     0.606239440  0.203737048  0.399381153
     0.578252030  0.198015548  0.579733402
     0.595839286  0.394954526  0.997160987
     0.600343173  0.401433598  0.200330068
     0.606602441  0.409325161  0.403560665
     0.603085645  0.407921886  0.602347325
     0.593958590  0.406119479  0.797690343
     0.595969501  0.600056567  0.998490935
     0.596479555  0.599254970  0.200578085
     0.600886087  0.605468804  0.403059270
     0.600469839  0.602627449  0.600756970
     0.606277923  0.607073480  0.803942459
     0.601528209  0.800709006  0.997962352
     0.599875950  0.800403714  0.199755628
     0.602046782  0.803124431  0.404310688
     0.603093888  0.802366078  0.604424630
     0.602123766  0.800362900  0.802326856
     0.805216722  0.002276777  0.998965108
     0.798673820  0.001728114  0.198728338
     0.804876462  0.004506776  0.404245599
     0.810756857  0.002908123  0.610540011
     0.803436423  0.201130566  0.195155262
     0.805341966  0.201780412  0.397209645
     0.809665007  0.396406045  0.006954256
     0.800910612  0.398009623  0.203359626
     0.806010824  0.402703980  0.403139639
     0.803113838  0.406310359  0.594459653
     0.785370432  0.582710994  0.989705404
     0.788217063  0.587830818  0.200015914
     0.800644696  0.600923607  0.403943586
     0.804505966  0.606049066  0.603520882
     0.819921552  0.624245515  0.815418252
     0.809826307  0.800684621  0.003653031
     0.786891309  0.800399307  0.201285943
     0.799449884  0.803504972  0.403695216
     0.803016703  0.803337975  0.600543609
     0.800129840  0.810993228  0.799869335
     0.003013555  0.198980859  0.002537846
     0.008400261  0.200605628  0.803637822
     0.008966753  0.403464060  0.007180702
     0.808012395  0.999728994  0.807508655
     0.805094971  0.199835193  0.006235070
     0.596258513  0.002837703  0.597586628
     0.598971905  0.201929650  0.796385439
     0.799042984  0.199682992  0.598000146
     0.819914124  0.201379396  0.818552799
     0.803435316  0.407032341  0.800524026

  ion indices of the primitive-cell ions
   primitive index   ion index
                 1           1
                 2           2
                 3           3
                 4           4
                 5           5
                 6           6
                 7           7
                 8           8
                 9           9
                10          10
                11          11
                12          12
                13          13
                14          14
                15          15
                16          16
                17          17
                18          18
                19          19
                20          20
                21          21
                22          22
                23          23
                24          24
                25          25
                26          26
                27          27
                28          28
                29          29
                30          30
                31          31
                32          32
                33          33
                34          34
                35          35
                36          36
                37          37
                38          38
                39          39
                40          40
                41          41
                42          42
                43          43
                44          44
                45          45
                46          46
                47          47
                48          48
                49          49
                50          50
                51          51
                52          52
                53          53
                54          54
                55          55
                56          56
                57          57
                58          58
                59          59
                60          60
                61          61
                62          62
                63          63
                64          64
                65          65
                66          66
                67          67
                68          68
                69          69
                70          70
                71          71
                72          72
                73          73
                74          74
                75          75
                76          76
                77          77
                78          78
                79          79
                80          80
                81          81
                82          82
                83          83
                84          84
                85          85
                86          86
                87          87
                88          88
                89          89
                90          90
                91          91
                92          92
                93          93
                94          94
                95          95
                96          96
                97          97
                98          98
                99          99
               100         100
               101         101
               102         102
               103         103
               104         104
               105         105
               106         106
               107         107
               108         108
               109         109
               110         110
               111         111
               112         112
               113         113
               114         114
               115         115
               116         116
               117         117
               118         118
               119         119
               120         120
               121         121
               122         122
               123         123
               124         124

----------------------------------------------------------------------------------------

 
 
 KPOINTS: KPOINTS created by Atomic Simulation Env

Automatic generation of k-mesh.
 Grid dimensions read from file:
 generate k-points for:    4    4    4

 Generating k-lattice:

  Cartesian coordinates                     Fractional coordinates (reciprocal lattice)
     0.019224869  0.006840893  0.011748694     0.250000000 -0.000000000 -0.000000000
     0.000001002  0.020433085  0.011798961     0.000000000  0.250000000  0.000000000
    -0.000040481  0.000029731  0.023546231     0.000000000  0.000000000  0.250000000

  Length of vectors
     0.023546236  0.023595051  0.023546285

  Shift w.r.t. Gamma in fractional coordinates (k-lattice)
     0.000000000  0.000000000  0.000000000

 
 Subroutine IBZKPT returns following result:
 ===========================================
 
 Found     36 irreducible k-points:
 
 Following reciprocal coordinates:
            Coordinates               Weight
  0.000000  0.000000  0.000000      1.000000
  0.250000  0.000000  0.000000      2.000000
  0.000000  0.000000 -0.250000      2.000000
  0.500000  0.000000  0.000000      1.000000
  0.000000  0.000000  0.500000      1.000000
  0.000000  0.250000  0.000000      2.000000
  0.250000  0.250000  0.000000      2.000000
  0.000000 -0.250000 -0.250000      2.000000
  0.500000  0.250000  0.000000      2.000000
  0.000000 -0.250000  0.500000      2.000000
 -0.250000  0.250000  0.000000      2.000000
  0.000000 -0.250000  0.250000      2.000000
  0.000000  0.500000  0.000000      1.000000
  0.250000  0.500000  0.000000      2.000000
  0.000000  0.500000 -0.250000      2.000000
  0.500000  0.500000  0.000000      1.000000
  0.000000  0.500000  0.500000      1.000000
  0.250000  0.000000  0.250000      2.000000
  0.500000  0.000000  0.250000      2.000000
 -0.250000  0.000000  0.500000      2.000000
 -0.250000  0.000000  0.250000      2.000000
  0.250000  0.250000  0.250000      2.000000
  0.500000  0.250000  0.250000      2.000000
 -0.250000 -0.250000  0.500000      2.000000
 -0.250000  0.250000  0.250000      2.000000
 -0.250000 -0.250000  0.250000      2.000000
  0.250000  0.500000  0.250000      2.000000
  0.500000  0.500000  0.250000      2.000000
 -0.250000  0.500000  0.500000      2.000000
 -0.250000  0.500000  0.250000      2.000000
  0.250000 -0.250000  0.250000      2.000000
  0.500000 -0.250000  0.250000      2.000000
 -0.250000  0.250000  0.500000      2.000000
  0.500000  0.000000  0.500000      1.000000
  0.500000  0.250000  0.500000      2.000000
  0.500000  0.500000  0.500000      1.000000
 
 Following cartesian coordinates:
            Coordinates               Weight
  0.000000  0.000000  0.000000      1.000000
  0.019225  0.006841  0.011749      2.000000
  0.000040 -0.000030 -0.023546      2.000000
  0.038450  0.013682  0.023497      1.000000
 -0.000081  0.000059  0.047092      1.000000
  0.000001  0.020433  0.011799      2.000000
  0.019226  0.027274  0.023548      2.000000
  0.000039 -0.020463 -0.035345      2.000000
  0.038451  0.034115  0.035296      2.000000
 -0.000082 -0.020374  0.035294      2.000000
 -0.019224  0.013592  0.000050      2.000000
 -0.000041 -0.020403  0.011747      2.000000
  0.000002  0.040866  0.023598      1.000000
  0.019227  0.047707  0.035347      2.000000
  0.000042  0.040836  0.000052      2.000000
  0.038452  0.054548  0.047095      1.000000
 -0.000079  0.040926  0.070690      1.000000
  0.019184  0.006871  0.035295      2.000000
  0.038409  0.013712  0.047044      2.000000
 -0.019306 -0.006781  0.035344      2.000000
 -0.019265 -0.006811  0.011798      2.000000
  0.019185  0.027304  0.047094      2.000000
  0.038410  0.034145  0.058843      2.000000
 -0.019307 -0.027215  0.023545      2.000000
 -0.019264  0.013622  0.023596      2.000000
 -0.019266 -0.027244 -0.000001      2.000000
  0.019186  0.047737  0.058893      2.000000
  0.038411  0.054578  0.070642      2.000000
 -0.019304  0.034085  0.058942      2.000000
 -0.019263  0.034055  0.035395      2.000000
  0.019183 -0.013562  0.023496      2.000000
  0.038408 -0.006722  0.035245      2.000000
 -0.019305  0.013652  0.047143      2.000000
  0.038369  0.013741  0.070590      1.000000
  0.038370  0.034174  0.082389      2.000000
  0.038371  0.054607  0.094188      1.000000
 


--------------------------------------------------------------------------------------------------------




 Dimension of arrays:
   k-points           NKPTS =     36   k-points in BZ     NKDIM =     36   number of bands    NBANDS=    820
   number of dos      NEDOS =    301   number of ions     NIONS =    124
   non local maximal  LDIM  =      6   non local SUM 2l+1 LMDIM =     18
   total plane-waves  NPLWV = 941192
   max r-space proj   IRMAX =      1   max aug-charges    IRDMAX=  21827
   dimension x,y,z NGX =    98 NGY =   98 NGZ =   98
   dimension x,y,z NGXF=   196 NGYF=  196 NGZF=  196
   support grid    NGXF=   196 NGYF=  196 NGZF=  196
   ions per type =             114   5   5
   NGX,Y,Z   is equivalent  to a cutoff of  12.54, 12.54, 12.54 a.u.
   NGXF,Y,Z  is equivalent  to a cutoff of  25.07, 25.07, 25.07 a.u.

 SYSTEM =  unknown system                          
 POSCAR =  V  Cr Ti                                

 Startparameter for this run:
   NWRITE =      2    write-flag & timer
   PREC   = accura    normal or accurate (medium, high low for compatibility)
   ISTART =      0    job   : 0-new  1-cont  2-samecut
   ICHARG =      2    charge: 1-file 2-atom 10-const
   ISPIN  =      1    spin polarized calculation?
   LNONCOLLINEAR =      F non collinear calculations
   LSORBIT =      F    spin-orbit coupling
   INIWAV =      1    electr: 0-lowe 1-rand  2-diag
   LASPH  =      F    aspherical Exc in radial PAW
 Electronic Relaxation 1
   ENCUT  =  520.0 eV  38.22 Ry    6.18 a.u.  24.16 24.16 24.16*2*pi/ulx,y,z
   ENINI  =  520.0     initial cutoff
   ENAUG  =  598.5 eV  augmentation charge cutoff
   NELM   =    100;   NELMIN=  2; NELMDL= -5     # of ELM steps 
   EDIFF  = 0.1E-05   stopping-criterion for ELM
   LREAL  =      F    real-space projection
   NLSPLINE    = F    spline interpolate recip. space projectors
   LCOMPAT=      F    compatible to vasp.4.4
   GGA_COMPAT  = T    GGA compatible to vasp.4.4-vasp.4.6
   LMAXPAW     = -100 max onsite density
   LMAXMIX     =    2 max onsite mixed and CHGCAR
   VOSKOWN=      0    Vosko Wilk Nusair interpolation
   ROPT   =    0.00000   0.00000   0.00000
 Ionic relaxation
   EDIFFG = -.1E-01   stopping-criterion for IOM
   NSW    =     -1    number of steps for IOM
   NBLOCK =      1;   KBLOCK =      1    inner block; outer block 
   IBRION =      2    ionic relax: 0-MD 1-quasi-New 2-CG
   NFREE  =      1    steps in history (QN), initial steepest desc. (CG)
   ISIF   =      2    stress and relaxation
   IWAVPR =     11    prediction:  0-non 1-charg 2-wave 3-comb
   ISYM   =      2    0-nonsym 1-usesym 2-fastsym
   LCORR  =      T    Harris-Foulkes like correction to forces

   POTIM  = 0.2000    time-step for ionic-motion
   TEIN   =    0.0    initial temperature
   TEBEG  =    0.0;   TEEND  =   0.0 temperature during run
   SMASS  =  -3.00    Nose mass-parameter (am)
   estimated Nose-frequenzy (Omega)   =  0.10E-29 period in steps = 0.31E+47 mass=  -0.386E-26a.u.
   SCALEE = 1.0000    scale energy and forces
   NPACO  =    256;   APACO  = 10.0  distance and # of slots for P.C.
   PSTRESS=    0.0 pullay stress

  Mass of Ions in am
   POMASS =  50.94 52.00 47.88
  Ionic Valenz
   ZVAL   =  11.00 12.00 10.00
  Atomic Wigner-Seitz radii
   RWIGS  =  -1.00 -1.00 -1.00
  virtual crystal weights 
   VCA    =   1.00  1.00  1.00
   NELECT =    1364.0000    total number of electrons
   NUPDOWN=      -1.0000    fix difference up-down

 DOS related values:
   EMIN   =  10.00;   EMAX   =-10.00  energy-range for DOS
   EFERMI =   0.00;   METHOD = LEGACY      
   ISMEAR =     1;   SIGMA  =   0.20  broadening in eV -4-tet -1-fermi 0-gaus

 Electronic relaxation 2 (details)
   IALGO  =     38    algorithm
   LDIAG  =      T    sub-space diagonalisation (order eigenvalues)
   LSUBROT=      F    optimize rotation matrix (better conditioning)
   TURBO    =      0    0=normal 1=particle mesh
   IRESTART =      0    0=no restart 2=restart with 2 vectors
   NREBOOT  =      0    no. of reboots
   NMIN     =      0    reboot dimension
   EREF     =   0.00    reference energy to select bands
   IMIX   =      4    mixing-type and parameters
     AMIX     =   0.40;   BMIX     =  1.00
     AMIX_MAG =   1.60;   BMIX_MAG =  1.00
     AMIN     =   0.10
     WC   =   100.;   INIMIX=   1;  MIXPRE=   1;  MAXMIX= -45

 Intra band minimization:
   WEIMIN = 0.0010     energy-eigenvalue tresh-hold
   EBREAK =  0.30E-09  absolut break condition
   DEPER  =   0.30     relativ break condition  

   TIME   =   0.40     timestep for ELM

  volume/ion in A,a.u.               =      13.62        91.94
  Fermi-wavevector in a.u.,A,eV,Ry     =   1.524423  2.880741 31.618097  2.323865
  Thomas-Fermi vector in A             =   2.632732
 
 Write flags
   LWAVE        =      F    write WAVECAR
   LDOWNSAMPLE  =      F    k-point downsampling of WAVECAR
   LCHARG       =      T    write CHGCAR
   LVTOT        =      F    write LOCPOT, total local potential
   LVHAR        =      F    write LOCPOT, Hartree potential only
   LELF         =      F    write electronic localiz. function (ELF)
   LORBIT       =     11    0 simple, 1 ext, 2 COOP (PROOUT), +10 PAW based schemes


 Dipole corrections
   LMONO  =      F    monopole corrections only (constant potential shift)
   LDIPOL =      F    correct potential (dipole corrections)
   IDIPOL =      0    1-x, 2-y, 3-z, 4-all directions 
   EPSILON=  1.0000000 bulk dielectric constant

 Exchange correlation treatment:
   GGA     =    PE    GGA type
   LEXCH   =     8    internal setting for exchange type
   LIBXC   =     F    Libxc                    
   VOSKOWN =     0    Vosko Wilk Nusair interpolation
   LHFCALC =     F    Hartree Fock is set to
   LHFONE  =     F    Hartree Fock one center treatment
   AEXX    =    0.0000 exact exchange contribution

 Linear response parameters
   LEPSILON=     F    determine dielectric tensor
   LRPA    =     F    only Hartree local field effects (RPA)
   LNABLA  =     F    use nabla operator in PAW spheres
   LVEL    =     F    velocity operator in full k-point grid
   CSHIFT  =0.1000    complex shift for real part using Kramers Kronig
   OMEGAMAX=  -1.0    maximum frequency
   DEG_THRESHOLD= 0.2000000E-02 threshold for treating states as degnerate
   RTIME   =   -0.100 relaxation time in fs
  (WPLASMAI=    0.000 imaginary part of plasma frequency in eV, 0.658/RTIME)
   DFIELD  = 0.0000000 0.0000000 0.0000000 field for delta impulse in time
 
  Optional k-point grid parameters
   LKPOINTS_OPT  =     F    use optional k-point grid
   KPOINTS_OPT_MODE=     1    mode for optional k-point grid
 
 Orbital magnetization related:
   ORBITALMAG=     F  switch on orbital magnetization
   LCHIMAG   =     F  perturbation theory with respect to B field
   DQ        =  0.001000  dq finite difference perturbation B field
   LLRAUG    =     F  two centre corrections for induced B field
   LBONE     =     F  B-component reconstruction in AE one-centre
   LVGVCALC  =     T  calculate vGv susceptibility
   LVGVAPPL  =     F  apply vGv susceptibility instead of pGv for G=0

 Random number generation:
   RANDOM_GENERATOR = DEFAULT
   PCG_SEED         = not used


--------------------------------------------------------------------------------------------------------


 conjugate gradient relaxation of ions
 charge density and potential will be updated during run
 non-spin polarized calculation
 Variant of blocked Davidson
 Davidson routine will perform the subspace rotation
 perform sub-space diagonalisation
    after iterative eigenvector-optimisation
 modified Broyden-mixing scheme, WC =      100.0
 initial mixing is a Kerker type mixing with AMIX =  0.4000 and BMIX =      1.0000
 Hartree-type preconditioning will be used
 using additional bands           138
 reciprocal scheme for non local part
 use partial core corrections
 calculate Harris-corrections to forces 
   (improved forces if not selfconsistent)
 use gradient corrections 
 use of overlap-Matrix (Vanderbilt PP)
 Methfessel and Paxton  Order N= 1 SIGMA  =   0.20


--------------------------------------------------------------------------------------------------------


  energy-cutoff  :      520.00
  volume of cell :     1689.36
      direct lattice vectors                 reciprocal lattice vectors
    12.995147041 -0.013548323  0.022358575     0.076899476  0.027363571  0.046994778
    -4.344442071 12.248515902 -0.022934774     0.000004010  0.081732338  0.047195846
    -4.307105760 -6.130942661 10.617746937    -0.000161924  0.000118924  0.094184924

  length of vectors
    12.995173338 12.996185776 12.995236356     0.094184943  0.094380205  0.094185138


 
 k-points in units of 2pi/SCALE and weight: KPOINTS created by Atomic Simulation Env
   0.00000000  0.00000000  0.00000000       0.016
   0.01922487  0.00684089  0.01174869       0.031
   0.00004048 -0.00002973 -0.02354623       0.031
   0.03844974  0.01368179  0.02349739       0.016
  -0.00008096  0.00005946  0.04709246       0.016
   0.00000100  0.02043308  0.01179896       0.031
   0.01922587  0.02727398  0.02354766       0.031
   0.00003948 -0.02046282 -0.03534519       0.031
   0.03845074  0.03411487  0.03529635       0.031
  -0.00008196 -0.02037362  0.03529350       0.031
  -0.01922387  0.01359219  0.00005027       0.031
  -0.00004148 -0.02040335  0.01174727       0.031
   0.00000200  0.04086617  0.02359792       0.016
   0.01922687  0.04770706  0.03534662       0.031
   0.00004249  0.04083644  0.00005169       0.031
   0.03845174  0.05454795  0.04709531       0.016
  -0.00007896  0.04092563  0.07069039       0.016
   0.01918439  0.00687062  0.03529493       0.031
   0.03840926  0.01371152  0.04704362       0.031
  -0.01930583 -0.00678143  0.03534377       0.031
  -0.01926535 -0.00681116  0.01179754       0.031
   0.01918539  0.02730371  0.04709389       0.031
   0.03841026  0.03414460  0.05884258       0.031
  -0.01930683 -0.02721452  0.02354481       0.031
  -0.01926435  0.01362192  0.02359650       0.031
  -0.01926635 -0.02724425 -0.00000142       0.031
   0.01918639  0.04773679  0.05889285       0.031
   0.03841126  0.05457769  0.07064154       0.031
  -0.01930383  0.03408474  0.05894169       0.031
  -0.01926335  0.03405501  0.03539546       0.031
   0.01918339 -0.01356246  0.02349596       0.031
   0.03840825 -0.00672157  0.03524466       0.031
  -0.01930483  0.01365165  0.04714273       0.031
   0.03836878  0.01374125  0.07058985       0.016
   0.03836978  0.03417433  0.08238881       0.031
   0.03837078  0.05460742  0.09418777       0.016
 
 k-points in reciprocal lattice and weights: KPOINTS created by Atomic Simulation Env
   0.00000000  0.00000000  0.00000000       0.016
   0.25000000  0.00000000  0.00000000       0.031
   0.00000000  0.00000000 -0.25000000       0.031
   0.50000000  0.00000000  0.00000000       0.016
   0.00000000  0.00000000  0.50000000       0.016
   0.00000000  0.25000000  0.00000000       0.031
   0.25000000  0.25000000  0.00000000       0.031
   0.00000000 -0.25000000 -0.25000000       0.031
   0.50000000  0.25000000  0.00000000       0.031
   0.00000000 -0.25000000  0.50000000       0.031
  -0.25000000  0.25000000  0.00000000       0.031
   0.00000000 -0.25000000  0.25000000       0.031
   0.00000000  0.50000000  0.00000000       0.016
   0.25000000  0.50000000  0.00000000       0.031
   0.00000000  0.50000000 -0.25000000       0.031
   0.50000000  0.50000000  0.00000000       0.016
   0.00000000  0.50000000  0.50000000       0.016
   0.25000000  0.00000000  0.25000000       0.031
   0.50000000  0.00000000  0.25000000       0.031
  -0.25000000  0.00000000  0.50000000       0.031
  -0.25000000  0.00000000  0.25000000       0.031
   0.25000000  0.25000000  0.25000000       0.031
   0.50000000  0.25000000  0.25000000       0.031
  -0.25000000 -0.25000000  0.50000000       0.031
  -0.25000000  0.25000000  0.25000000       0.031
  -0.25000000 -0.25000000  0.25000000       0.031
   0.25000000  0.50000000  0.25000000       0.031
   0.50000000  0.50000000  0.25000000       0.031
  -0.25000000  0.50000000  0.50000000       0.031
  -0.25000000  0.50000000  0.25000000       0.031
   0.25000000 -0.25000000  0.25000000       0.031
   0.50000000 -0.25000000  0.25000000       0.031
  -0.25000000  0.25000000  0.50000000       0.031
   0.50000000  0.00000000  0.50000000       0.016
   0.50000000  0.25000000  0.50000000       0.031
   0.50000000  0.50000000  0.50000000       0.016
 
 position of ions in fractional coordinates (direct lattice) 
   0.00809911  0.99600487  0.00604667
   0.99253245  0.00594523  0.19941846
   0.00758995  0.99680455  0.39769049
   0.00432756  0.00173899  0.59861550
   0.99981188  0.00354488  0.80445085
   0.00457608  0.20254848  0.19916778
   0.00434979  0.19945892  0.39917954
   0.00524995  0.19929126  0.60104967
   0.00127620  0.39651712  0.19781932
   0.00527136  0.40196718  0.40179627
   0.00343882  0.39866853  0.59994710
   0.00846854  0.40032956  0.80931408
   0.00413194  0.61085584  0.00850627
   0.00030782  0.59159817  0.20267118
   0.00363894  0.59918577  0.40319202
   0.00465937  0.60253835  0.60106866
   0.00212585  0.59651987  0.79844562
   0.94971889  0.75543321  0.19927391
   0.99496267  0.79431130  0.41102236
   0.00291480  0.80257997  0.60335322
   0.00017985  0.80140746  0.80494630
   0.20654553  0.00769735  0.99080893
   0.24610650  0.04104839  0.19974799
   0.09831977  0.89725419  0.19849315
   0.20196461  0.00301277  0.59982483
   0.19859481  0.99947937  0.79936523
   0.19897950  0.20220262  0.00168101
   0.20394021  0.20981212  0.20073488
   0.20165025  0.19062189  0.39561343
   0.20000210  0.20610780  0.60338274
   0.19497305  0.20130089  0.80244684
   0.19526410  0.39616833  0.99775378
   0.20067458  0.39772513  0.19994213
   0.20161308  0.40030838  0.40131708
   0.20088012  0.40063443  0.59787798
   0.20054754  0.40376758  0.80022875
   0.20010498  0.60272970  0.99904429
   0.19585602  0.59065002  0.19411250
   0.20208624  0.60068139  0.40098037
   0.20297225  0.60123974  0.60130470
   0.19994242  0.60228877  0.80126254
   0.19055082  0.80466508  0.99910597
   0.21105855  0.79597478  0.19897597
   0.19498462  0.80388166  0.39541320
   0.20193607  0.80132567  0.59957572
   0.19934519  0.79925275  0.80146227
   0.40113702  0.99923112  0.99517707
   0.41427900  0.00235480  0.19597247
   0.39032689  0.00010528  0.39258517
   0.39127955  0.99444276  0.59747693
   0.40114327  0.00034247  0.80001237
   0.40127695  0.20287632  0.99763612
   0.41117687  0.21284401  0.19827824
   0.41624859  0.22005186  0.40713629
   0.38898298  0.19604650  0.59467505
   0.39480952  0.20132911  0.80095901
   0.39753218  0.40165141  0.99854145
   0.40183970  0.40543149  0.19995616
   0.40183643  0.40709811  0.40256019
   0.39789467  0.40015355  0.59888610
   0.40023483  0.40401891  0.80125355
   0.39932965  0.60057952  0.99840604
   0.40022900  0.59841254  0.19920478
   0.39984591  0.60081307  0.40133651
   0.40059290  0.60200688  0.60082334
   0.40021889  0.60248386  0.80062744
   0.39837985  0.79887849  0.99640771
   0.40397961  0.79858032  0.19863186
   0.39406146  0.79519056  0.39496297
   0.40066506  0.80166438  0.59889332
   0.40102403  0.80007745  0.79855390
   0.59938577  0.99821019  0.99721620
   0.60258533  0.00106610  0.19735790
   0.59548651  0.99485641  0.39091651
   0.61010688  0.00067350  0.80845535
   0.60384107  0.19833677  0.00076172
   0.60458182  0.20324191  0.19936751
   0.60623944  0.20373705  0.39938115
   0.57825203  0.19801555  0.57973340
   0.59583929  0.39495453  0.99716099
   0.60034317  0.40143360  0.20033007
   0.60660244  0.40932516  0.40356066
   0.60308564  0.40792189  0.60234732
   0.59395859  0.40611948  0.79769034
   0.59596950  0.60005657  0.99849094
   0.59647956  0.59925497  0.20057808
   0.60088609  0.60546880  0.40305927
   0.60046984  0.60262745  0.60075697
   0.60627792  0.60707348  0.80394246
   0.60152821  0.80070901  0.99796235
   0.59987595  0.80040371  0.19975563
   0.60204678  0.80312443  0.40431069
   0.60309389  0.80236608  0.60442463
   0.60212377  0.80036290  0.80232686
   0.80521672  0.00227678  0.99896511
   0.79867382  0.00172811  0.19872834
   0.80487646  0.00450678  0.40424560
   0.81075686  0.00290812  0.61054001
   0.80343642  0.20113057  0.19515526
   0.80534197  0.20178041  0.39720964
   0.80966501  0.39640605  0.00695426
   0.80091061  0.39800962  0.20335963
   0.80601082  0.40270398  0.40313964
   0.80311384  0.40631036  0.59445965
   0.78537043  0.58271099  0.98970540
   0.78821706  0.58783082  0.20001591
   0.80064470  0.60092361  0.40394359
   0.80450597  0.60604907  0.60352088
   0.81992155  0.62424551  0.81541825
   0.80982631  0.80068462  0.00365303
   0.78689131  0.80039931  0.20128594
   0.79944988  0.80350497  0.40369522
   0.80301670  0.80333798  0.60054361
   0.80012984  0.81099323  0.79986934
   0.00301355  0.19898086  0.00253785
   0.00840026  0.20060563  0.80363782
   0.00896675  0.40346406  0.00718070
   0.80801239  0.99972899  0.80750866
   0.80509497  0.19983519  0.00623507
   0.59625851  0.00283770  0.59758663
   0.59897190  0.20192965  0.79638544
   0.79904298  0.19968299  0.59800015
   0.81991412  0.20137940  0.81855280
   0.80343532  0.40703234  0.80052403
 
 position of ions in cartesian coordinates  (Angst):
  -4.24788000 12.16240000  0.04154000
  12.01336000 -1.16325000  2.13943000
  -5.94482207  9.77105590  4.19988523
  -2.52961793 -3.64883590  6.35600477
   9.51244704 -4.90216832  8.56372857
  -1.67833000  1.25977000  2.11017000
  -2.52932000 -0.00433000  4.23391000
  -3.38637000 -1.24405000  6.37734000
  -2.55809000  3.64391000  2.09133000
  -3.40840000  2.46004000  4.25707000
  -4.27134000  1.20481000  6.36102000
  -5.11496000 -0.05853000  8.58410000
  -2.63677000  7.42987000  0.07640000
  -3.43909000  6.00363000  2.13835000
  -4.29243000  4.86714000  4.26733000
  -5.14601000  3.69502000  6.36828000
  -6.00291000  2.41123000  8.46406000
   8.20150704  8.01833168  2.11974858
   7.70853000  7.19570000  4.36816000
  -6.04759000  6.13125000  6.38791000
  -6.94632000  4.88097000  8.52834000
  -1.61687000 -5.98311000 10.52460000
   2.15952207 -0.72519590  2.12543477
  -3.47532000  9.77175000  2.08917000
   0.02796207 -3.64332590  6.37323477
  -5.20436207  7.33858590  8.46897523
   1.70007000  2.46368000  0.01766000
   0.87413000  1.33643000  2.13110000
   0.08838000 -0.09338000  4.20066000
  -0.89520000 -1.17750000  6.40631000
  -1.79706000 -2.45676000  8.51992000
  -3.48107576 -1.26734266 10.58917694
   0.01873000  3.64299000  2.11830000
  -0.84764000  2.44000000  4.25641000
  -1.70519000  1.23890000  6.34342000
  -2.59467000  0.03668000  8.49185000
  -4.32112000  1.25475000 10.59825000
  -0.85693000  6.04184000  2.05187000
  -1.71055000  4.89633000  4.24825000
  -2.56428000  3.67498000  6.37525000
  -3.46945000  2.46194000  8.49826000
  -5.32284000  3.72791000 10.59406000
  -1.57234000  8.52674000  2.09914000
  -2.66165000  7.41946000  4.18432000
  -3.43956000  6.13635000  6.35228000
  -4.33377000  4.87324000  8.49585000
  -3.41460000  6.13229000 10.55259000
   4.52931207 -1.17826590  2.08999477
   3.38099207 -2.41091590  4.17709477
  -1.80896000  8.51205000  6.32980000
   1.76569000 -4.90607000  8.50329000
   0.03634424 -3.63695266 10.59696694
   3.56461000  1.38582000  2.10958000
   2.69963000  0.19354000  4.32713000
   1.64185000 -1.24991000  6.31831000
   0.80613000 -2.45000000  8.50859000
  -0.87978576 -1.20775266 10.60193694
   2.59936000  3.73457000  2.12277000
   1.71944000  2.51283000  4.27393000
   0.85279000  1.22416000  6.35854000
  -0.00521000  0.03077000  8.50719000
  -1.72007576  1.22962734 10.59597694
   1.74327000  6.10293000  2.11033000
   0.85726000  4.89308000  4.25645000
   0.00257000  3.68465000  6.37454000
  -0.86494000  2.46551000  8.49599000
  -2.58531000  3.67076000 10.57019000
   0.92486000  8.55815000  2.09974000
  -0.03492000  7.31307000  4.18419000
  -0.85558000  6.14199000  6.34947000
  -1.70398000  4.89844000  8.46946000
  -0.84267576  6.10459734 10.57869694
   6.97601207 -1.20509590  2.10894477
   1.73262000  9.78076000  4.14115000
   4.44340000 -4.95661000  8.59760000
   6.98206000  2.41648000  0.01704000
   6.11496000  1.25891000  2.12569000
   5.27287000  0.03868000  4.24941000
   4.15723000 -1.13675000  6.16385000
   1.73228424 -1.28400266 10.59186694
   5.19470000  3.68062000  2.13127000
   4.36642000  2.53120000  4.28908000
   3.47062000  1.29531000  6.39970000
   2.51848000  0.07572000  8.47364000
   0.83719424  1.22003734 10.60128694
   4.28400000  6.10217000  2.12928000
   3.44216000  4.93682000  4.27913000
   2.59759000  3.68995000  6.37829000
   1.77861000  2.49861000  8.53569000
   0.03998424  3.68089734 10.59119694
   3.45780000  8.57094000  2.11601000
   2.59315000  7.35012000  4.28791000
   1.74814000  6.11393000  6.41271000
   0.89185000  4.87608000  8.51401000
   6.15137000 -6.10762000 10.62471000
   9.51543207 -1.20804590  2.12786477
   8.69878000 -2.43411000  4.31007000
   7.89361000 -3.71855000  6.50062000
   8.72642000  1.25618000  2.08546000
   7.87809000  0.02533000  4.23085000
   8.76960000  4.80178000  0.08285000
   7.80293000  3.61739000  2.16800000
   6.98834000  2.44998000  4.28922000
   6.11099000  1.32122000  6.32046000
   3.41168424  1.05887734 10.51263694
   6.82771000  5.96309000  2.12786000
   6.05399000  4.87302000  4.29309000
   5.22230000  3.71215000  6.41212000
   4.43091000  2.63569000  8.66192000
   7.02955000  9.77383000  0.03853000
   5.88152000  8.55897000  2.13644000
   5.15943000  7.35588000  4.28578000
   4.35866000  6.14692000  6.37595000
   3.42937000  5.01867000  8.49210000
  -0.83623000  2.42162000  0.02245000
  -4.22371000 -2.47005000  8.52841000
  -1.66723000  4.89769000  0.06719000
   2.67895000  7.28346000  8.56906000
   9.56730000  2.39855000  0.07962000
   5.16227000 -3.63709000  6.35829000
   3.47634000 -2.41737000  8.46458000
   6.94052000 -1.23131000  6.36270000
   6.25443000 -2.56301000  8.70490000
   5.22449000  0.06669000  8.50839000
 


--------------------------------------------------------------------------------------------------------


 k-point   1 :   0.0000 0.0000 0.0000  plane waves:   45567
 k-point   2 :   0.2500 0.0000 0.0000  plane waves:   45468
 k-point   3 :   0.0000 0.0000-0.2500  plane waves:   45468
 k-point   4 :   0.5000 0.0000 0.0000  plane waves:   45464
 k-point   5 :   0.0000 0.0000 0.5000  plane waves:   45464
 k-point   6 :   0.0000 0.2500 0.0000  plane waves:   45468
 k-point   7 :   0.2500 0.2500 0.0000  plane waves:   45502
 k-point   8 :   0.0000-0.2500-0.2500  plane waves:   45502
 k-point   9 :   0.5000 0.2500 0.0000  plane waves:   45494
 k-point  10 :   0.0000-0.2500 0.5000  plane waves:   45494
 k-point  11 :  -0.2500 0.2500 0.0000  plane waves:   45469
 k-point  12 :   0.0000-0.2500 0.2500  plane waves:   45470
 k-point  13 :   0.0000 0.5000 0.0000  plane waves:   45472
 k-point  14 :   0.2500 0.5000 0.0000  plane waves:   45502
 k-point  15 :   0.0000 0.5000-0.2500  plane waves:   45502
 k-point  16 :   0.5000 0.5000 0.0000  plane waves:   45470
 k-point  17 :   0.0000 0.5000 0.5000  plane waves:   45470
 k-point  18 :   0.2500 0.0000 0.2500  plane waves:   45497
 k-point  19 :   0.5000 0.0000 0.2500  plane waves:   45499
 k-point  20 :  -0.2500 0.0000 0.5000  plane waves:   45499
 k-point  21 :  -0.2500 0.0000 0.2500  plane waves:   45470
 k-point  22 :   0.2500 0.2500 0.2500  plane waves:   45516
 k-point  23 :   0.5000 0.2500 0.2500  plane waves:   45501
 k-point  24 :  -0.2500-0.2500 0.5000  plane waves:   45501
 k-point  25 :  -0.2500 0.2500 0.2500  plane waves:   45454
 k-point  26 :  -0.2500-0.2500 0.2500  plane waves:   45454
 k-point  27 :   0.2500 0.5000 0.2500  plane waves:   45493
 k-point  28 :   0.5000 0.5000 0.2500  plane waves:   45500
 k-point  29 :  -0.2500 0.5000 0.5000  plane waves:   45500
 k-point  30 :  -0.2500 0.5000 0.2500  plane waves:   45488
 k-point  31 :   0.2500-0.2500 0.2500  plane waves:   45479
 k-point  32 :   0.5000-0.2500 0.2500  plane waves:   45499
 k-point  33 :  -0.2500 0.2500 0.5000  plane waves:   45499
 k-point  34 :   0.5000 0.0000 0.5000  plane waves:   45474
 k-point  35 :   0.5000 0.2500 0.5000  plane waves:   45488
 k-point  36 :   0.5000 0.5000 0.5000  plane waves:   45516

 maximum and minimum number of plane-waves per node :     45567    45454

 maximum number of plane-waves:     45567
 maximum index in each direction: 
   IXMAX=   24   IYMAX=   24   IZMAX=   24
   IXMIN=  -24   IYMIN=  -24   IZMIN=  -24


 serial   3D FFT for wavefunctions
 parallel 3D FFT for charge:
    minimum data exchange during FFTs selected (reduces bandwidth)


 total amount of memory used by VASP MPI-rank0  6702056. kBytes
=======================================================================

   base      :      30000. kBytes
   nonl-proj :     799080. kBytes
   fftplans  :      67629. kBytes
   grid      :     159195. kBytes
   one-center:       1928. kBytes
   wavefun   :    5644224. kBytes
 
     INWAV:  cpu time      0.0001: real time      0.0001
 Broyden mixing: mesh for mixing (old mesh)
   NGX = 49   NGY = 49   NGZ = 49
  (NGX  =196   NGY  =196   NGZ  =196)
  gives a total of 117649 points

 initial charge density was supplied:
 charge density of overlapping atoms calculated
 number of electron    1364.0000000 magnetization 
 keeping initial charge density in first step


--------------------------------------------------------------------------------------------------------


 Maximum index for augmentation-charges          5255 (set IRDMAX)


--------------------------------------------------------------------------------------------------------


 First call to EWALD:  gamma=   0.149
 Maximum number of real-space cells 3x 3x 3
 Maximum number of reciprocal cells 3x 3x 3

    FEWALD:  cpu time      0.0730: real time      0.0107


--------------------------------------- Ionic step        1  -------------------------------------------




--------------------------------------- Iteration      1(   1)  ---------------------------------------


    POTLOK:  cpu time      0.1068: real time      0.1282
    SETDIJ:  cpu time      0.1083: real time      0.0138
     EDDAV:  cpu time     81.3997: real time     80.0147
       DOS:  cpu time      0.0185: real time      0.0186
    --------------------------------------------
      LOOP:  cpu time     81.6334: real time     80.1752

 eigenvalue-minimisations  : 59040
 total energy-change (2. order) : 0.2026145E+05  (-0.7539856E+05)
 number of electron    1364.0000000 magnetization 
 augmentation part     1364.0000000 magnetization 

 Free energy of the ion-electron system (eV)
  ---------------------------------------------------
  alpha Z        PSCENC =     12315.99909697
  Ewald energy   TEWEN  =   -129471.30697576
  -Hartree energ DENC   =    -36472.74705515
  -exchange      EXHF   =         0.00000000
  -V(xc)+E(xc)   XCENC  =      3692.86665295
  PAW double counting   =    134689.96621064  -132185.80545990
  entropy T*S    EENTRO =        -0.01262284
  eigenvalues    EBANDS =      3575.80364445
  atomic energy  EATOM  =    164116.68312662
  Solvation  Ediel_sol  =         0.00000000
  ---------------------------------------------------
  free energy    TOTEN  =     20261.44661797 eV

  energy without entropy =    20261.45924081  energy(sigma->0) =    20261.45082558


--------------------------------------------------------------------------------------------------------




--------------------------------------- Iteration      1(   2)  ---------------------------------------


     EDDAV:  cpu time     82.5624: real time     80.6975
       DOS:  cpu time      0.0211: real time      0.0211
    --------------------------------------------
      LOOP:  cpu time     82.5835: real time     80.7187

 eigenvalue-minimisations  : 60320
 total energy-change (2. order) :-0.2047984E+05  (-0.2034901E+05)
 number of electron    1364.0000000 magnetization 
 augmentation part     1364.0000000 magnetization 

 Free energy of the ion-electron system (eV)
  ---------------------------------------------------
  alpha Z        PSCENC =     12315.99909697
  Ewald energy   TEWEN  =   -129471.30697576
  -Hartree energ DENC   =    -36472.74705515
  -exchange      EXHF   =         0.00000000
  -V(xc)+E(xc)   XCENC  =      3692.86665295
  PAW double counting   =    134689.96621064  -132185.80545990
  entropy T*S    EENTRO =        -0.00169332
  eigenvalues    EBANDS =    -16904.04861369
  atomic energy  EATOM  =    164116.68312662
  Solvation  Ediel_sol  =         0.00000000
  ---------------------------------------------------
  free energy    TOTEN  =      -218.39471065 eV

  energy without entropy =     -218.39301733  energy(sigma->0) =     -218.39414621


--------------------------------------------------------------------------------------------------------




--------------------------------------- Iteration      1(   3)  ---------------------------------------


     EDDAV:  cpu time    102.9291: real time    101.2908
       DOS:  cpu time      0.0224: real time      0.0225
    --------------------------------------------
      LOOP:  cpu time    102.9516: real time    101.3133

 eigenvalue-minimisations  : 79552
 total energy-change (2. order) :-0.1018844E+04  (-0.9986608E+03)
 number of electron    1364.0000000 magnetization 
 augmentation part     1364.0000000 magnetization 

 Free energy of the ion-electron system (eV)
  ---------------------------------------------------
  alpha Z        PSCENC =     12315.99909697
  Ewald energy   TEWEN  =   -129471.30697576
[...]
   -.980E+02 0.173E+03 -.676E+02   0.982E+02 -.173E+03 0.677E+02   -.266E+00 0.641E+00 -.894E-01   0.325E-03 -.313E-02 -.337E-03
   -.432E+01 0.434E+02 0.804E+01   0.421E+01 -.433E+02 -.827E+01   0.118E+00 -.675E-01 0.234E+00   -.139E-02 -.917E-03 0.126E-02
   0.939E+02 -.697E+02 0.147E+03   -.932E+02 0.698E+02 -.147E+03   -.775E+00 -.814E-01 0.426E+00   -.149E-02 0.214E-02 -.293E-02
   0.131E+03 -.146E+03 0.119E+03   -.131E+03 0.146E+03 -.118E+03   -.954E-01 -.628E+00 -.688E+00   -.226E-02 0.291E-02 -.477E-03
   0.888E+02 -.406E+02 0.126E+03   -.889E+02 0.402E+02 -.126E+03   0.146E+00 0.439E+00 0.459E+00   -.383E-03 -.181E-02 -.174E-02
   0.103E+03 -.593E+02 0.121E+03   -.104E+03 0.587E+02 -.120E+03   0.621E+00 0.590E+00 -.737E+00   -.122E-02 0.325E-03 0.143E-02
   0.362E+02 -.124E+03 -.242E+02   -.360E+02 0.124E+03 0.241E+02   -.208E+00 0.249E+00 0.161E+00   0.231E-03 0.852E-03 -.121E-02
   -.684E+02 -.653E+02 0.114E+03   0.681E+02 0.650E+02 -.114E+03   0.316E+00 0.290E+00 -.217E-01   0.113E-02 0.118E-02 -.939E-03
   0.137E+03 0.152E+02 -.485E+02   -.137E+03 -.150E+02 0.482E+02   -.480E-01 -.262E+00 0.345E+00   -.195E-03 0.239E-02 -.158E-02
   0.197E+03 -.145E+03 0.239E+03   -.197E+03 0.145E+03 -.239E+03   -.109E+00 0.675E-02 -.200E+00   -.104E-02 0.190E-02 -.150E-02
   0.350E+02 0.497E+02 0.725E+02   -.353E+02 -.496E+02 -.724E+02   0.300E+00 -.130E+00 -.356E-01   0.516E-03 0.236E-02 -.151E-02
 -----------------------------------------------------------------------------------------------
   0.865E+00 -.574E+00 0.110E+01   0.168E-11 0.725E-12 -.347E-11   -.864E+00 0.578E+00 -.109E+01   -.129E-02 -.393E-02 0.404E-02
 
 
 POSITION                                       TOTAL-FORCE (eV/Angst)
 -----------------------------------------------------------------------------------
     -4.24788     12.16240      0.04154        -0.000643     -0.009969     -0.003021
     12.01336     -1.16325      2.13943         0.002122     -0.009408     -0.001627
     -5.94482      9.77106      4.19989        -0.004637     -0.001520      0.001524
     -2.52962     -3.64884      6.35600        -0.003796     -0.001814      0.004884
      9.51245     -4.90217      8.56373         0.003978     -0.003024      0.003704
     -1.67833      1.25977      2.11017         0.000766     -0.004164     -0.000166
     -2.52932     -0.00433      4.23391         0.001477      0.000286     -0.001074
     -3.38637     -1.24405      6.37734        -0.001024      0.001555      0.001382
     -2.55809      3.64391      2.09133         0.001641      0.003634      0.003374
     -3.40840      2.46004      4.25707        -0.000441      0.002999     -0.003982
     -4.27134      1.20481      6.36102        -0.001179      0.002880      0.000909
     -5.11496     -0.05853      8.58410        -0.001225      0.006862     -0.004029
     -2.63677      7.42987      0.07640        -0.000638      0.006034     -0.002991
     -3.43909      6.00363      2.13835         0.002495      0.014814     -0.003567
     -4.29243      4.86714      4.26733         0.000866      0.005709     -0.004735
     -5.14601      3.69502      6.36828        -0.000948      0.001217     -0.000507
     -6.00291      2.41123      8.46406         0.002225     -0.000732     -0.003467
      8.20151      8.01833      2.11975        -0.024221      0.011512     -0.005692
      7.70853      7.19570      4.36816        -0.000477      0.001535      0.001541
     -6.04759      6.13125      6.38791        -0.000612     -0.000997      0.001112
     -6.94632      4.88097      8.52834         0.002919      0.000108      0.000194
     -1.61687     -5.98311     10.52460         0.000834     -0.003475      0.003801
      2.15952     -0.72520      2.12543        -0.012662     -0.017362     -0.000532
     -3.47532      9.77175      2.08917         0.008158     -0.020877     -0.000697
      0.02796     -3.64333      6.37323        -0.000155      0.002284     -0.003247
     -5.20436      7.33859      8.46898         0.000544      0.001725      0.000864
      1.70007      2.46368      0.01766        -0.000298     -0.000875     -0.000723
      0.87413      1.33643      2.13110         0.000798     -0.008403     -0.000734
      0.08838     -0.09338      4.20066         0.000778     -0.005387      0.002309
     -0.89520     -1.17750      6.40631        -0.001627     -0.000035      0.002454
     -1.79706     -2.45676      8.51992         0.005395     -0.001898      0.000185
     -3.48108     -1.26734     10.58918         0.001981     -0.000883      0.004513
      0.01873      3.64299      2.11830        -0.003163      0.002179     -0.000614
     -0.84764      2.44000      4.25641         0.001799     -0.000226     -0.002890
     -1.70519      1.23890      6.34342        -0.001038      0.000703      0.000137
     -2.59467      0.03668      8.49185        -0.001398     -0.006218      0.002064
     -4.32112      1.25475     10.59825        -0.000995     -0.005001     -0.002778
     -0.85693      6.04184      2.05187        -0.001148      0.009262      0.004718
     -1.71055      4.89633      4.24825        -0.001215      0.002068     -0.003466
     -2.56428      3.67498      6.37525        -0.000822      0.001027     -0.002632
     -3.46945      2.46194      8.49826         0.002037      0.000159     -0.003194
     -5.32284      3.72791     10.59406         0.006719     -0.000001     -0.006880
     -1.57234      8.52674      2.09914         0.019312      0.007983     -0.000061
     -2.66165      7.41946      4.18432         0.001773      0.002798      0.000013
     -3.43956      6.13635      6.35228        -0.001000      0.001119     -0.000770
     -4.33377      4.87324      8.49585         0.003061      0.004085     -0.003958
     -3.41460      6.13229     10.55259         0.002294      0.001195      0.000986
      4.52931     -1.17827      2.08999        -0.005394     -0.001206      0.000481
      3.38099     -2.41092      4.17709         0.005827      0.001845      0.007770
     -1.80896      8.51205      6.32980         0.004450      0.000673      0.001372
      1.76569     -4.90607      8.50329         0.001626      0.003987      0.000392
      0.03634     -3.63695     10.59697        -0.000912     -0.000807      0.004082
      3.56461      1.38582      2.10958        -0.003107     -0.007908      0.001775
      2.69963      0.19354      4.32713         0.003764     -0.003319      0.000052
      1.64185     -1.24991      6.31831         0.004544      0.002282      0.000622
      0.80613     -2.45000      8.50859         0.000373      0.001690     -0.002472
     -0.87979     -1.20775     10.60194        -0.001729     -0.003735      0.003337
      2.59936      3.73457      2.12277        -0.001448     -0.005463      0.000286
      1.71944      2.51283      4.27393         0.002834     -0.001972     -0.000590
      0.85279      1.22416      6.35854         0.002736      0.001884      0.000064
     -0.00521      0.03077      8.50719        -0.000531     -0.001957     -0.000631
     -1.72008      1.22963     10.59598        -0.001923     -0.002043     -0.001202
      1.74327      6.10293      2.11033        -0.004830     -0.003297     -0.000457
      0.85726      4.89308      4.25645        -0.000456     -0.001535     -0.001632
      0.00257      3.68465      6.37454         0.000206      0.000816     -0.002044
     -0.86494      2.46551      8.49599        -0.000867     -0.000870     -0.003166
     -2.58531      3.67076     10.57019         0.002438      0.001507     -0.003418
      0.92486      8.55815      2.09974        -0.000468      0.002515     -0.000656
     -0.03492      7.31307      4.18419         0.000089      0.002632      0.002832
     -0.85558      6.14199      6.34947        -0.001578      0.000091      0.000584
     -1.70398      4.89844      8.46946         0.000387      0.002401     -0.001181
     -0.84268      6.10460     10.57870         0.002799      0.005452      0.002848
      6.97601     -1.20510      2.10894        -0.001210      0.000901      0.000436
      1.73262      9.78076      4.14115         0.002820      0.004547      0.006743
      4.44340     -4.95661      8.59760        -0.007087      0.001022     -0.000499
      6.98206      2.41648      0.01704        -0.002503      0.005038      0.004061
      6.11496      1.25891      2.12569        -0.001259     -0.000567      0.001545
      5.27287      0.03868      4.24941         0.002762      0.002919     -0.000930
      4.15723     -1.13675      6.16385         0.008614      0.004348      0.003982
      1.73228     -1.28400     10.59187         0.001232      0.001286      0.002876
      5.19470      3.68062      2.13127         0.000420     -0.000806     -0.000028
      4.36642      2.53120      4.28908         0.001569     -0.002657     -0.003359
      3.47062      1.29531      6.39970         0.002586      0.002986      0.000399
      2.51848      0.07572      8.47364        -0.000283     -0.003514     -0.004055
      0.83719      1.22004     10.60129        -0.003387     -0.002971     -0.001256
      4.28400      6.10217      2.12928        -0.003200     -0.002916     -0.000064
      3.44216      4.93682      4.27913         0.001578     -0.002772     -0.001998
      2.59759      3.68995      6.37829         0.002598     -0.000531     -0.001467
      1.77861      2.49861      8.53569        -0.003551     -0.001827     -0.002385
      0.03998      3.68090     10.59120        -0.003504     -0.001608     -0.001529
      3.45780      8.57094      2.11601        -0.005101      0.000044     -0.000439
      2.59315      7.35012      4.28791        -0.000577     -0.001694      0.001505
      1.74814      6.11393      6.41271        -0.001249     -0.001433     -0.003067
      0.89185      4.87608      8.51401        -0.001009      0.005362     -0.003198
      6.15137     -6.10762     10.62471         0.000518     -0.003153      0.003738
      9.51543     -1.20805      2.12786         0.001452     -0.001120     -0.001645
      8.69878     -2.43411      4.31007        -0.001023      0.000511      0.001218
      7.89361     -3.71855      6.50062        -0.002228      0.000391     -0.002288
      8.72642      1.25618      2.08546         0.001432     -0.000551      0.003879
      7.87809      0.02533      4.23085         0.000816      0.004421     -0.001077
      8.76960      4.80178      0.08285        -0.005314      0.007596      0.001925
      7.80293      3.61739      2.16800         0.004982      0.004504     -0.002563
      6.98834      2.44998      4.28922         0.000109      0.005577     -0.003451
      6.11099      1.32122      6.32046         0.000165      0.002019      0.003511
      3.41168      1.05888     10.51264        -0.001719     -0.001940     -0.005350
      6.82771      5.96309      2.12786        -0.001155      0.003159     -0.001050
      6.05399      4.87302      4.29309         0.001141      0.001886     -0.001791
      5.22230      3.71215      6.41212         0.002450      0.000645      0.000542
      4.43091      2.63569      8.66192        -0.000810     -0.001100     -0.002327
      7.02955      9.77383      0.03853        -0.006343     -0.001312     -0.004099
      5.88152      8.55897      2.13644        -0.012609      0.001057     -0.001818
      5.15943      7.35588      4.28578        -0.002748     -0.002682      0.001808
      4.35866      6.14692      6.37595        -0.000098     -0.001937      0.004576
      3.42937      5.01867      8.49210         0.000551     -0.005965     -0.001036
     -0.83623      2.42162      0.02245         0.003993     -0.005791      0.005805
     -4.22371     -2.47005      8.52841         0.000372     -0.000754      0.001635
     -1.66723      4.89769      0.06719        -0.001996      0.004383      0.002300
      2.67895      7.28346      8.56906         0.000413     -0.002588      0.001964
      9.56730      2.39855      0.07962         0.001671      0.000697      0.004688
      5.16227     -3.63709      6.35829         0.004385      0.000313      0.005611
      3.47634     -2.41737      8.46458         0.003170      0.000828      0.003950
      6.94052     -1.23131      6.36270         0.004199      0.002462      0.005213
      6.25443     -2.56301      8.70490        -0.003155      0.000538     -0.002246
      5.22449      0.06669      8.50839        -0.000321     -0.004376     -0.000580
 -----------------------------------------------------------------------------------
    total drift:                               -0.000756      0.000414      0.009118


--------------------------------------------------------------------------------------------------------



  FREE ENERGIE OF THE ION-ELECTRON SYSTEM (eV)
  ---------------------------------------------------
  free  energy   TOTEN  =     -1099.82262214 eV

  energy  without entropy=    -1099.81905741  energy(sigma->0) =    -1099.82143390
 


--------------------------------------------------------------------------------------------------------


    POTLOK:  cpu time      0.1784: real time      0.0802


--------------------------------------------------------------------------------------------------------




--------------------------------------------------------------------------------------------------------


     LOOP+:  cpu time   3856.4028: real time   3795.1157
    4ORBIT:  cpu time      0.0000: real time      0.0000



 total charge

# of ion       s       p       d       tot
------------------------------------------
    1        0.338   6.215   3.010   9.563
    2        0.383   6.230   3.194   9.807
    3        0.336   6.208   3.002   9.546
    4        0.360   6.244   3.065   9.669
    5        0.359   6.251   3.043   9.653
    6        0.363   6.241   3.101   9.705
    7        0.355   6.241   3.041   9.637
    8        0.359   6.234   3.085   9.678
    9        0.361   6.250   3.072   9.683
   10        0.359   6.243   3.063   9.665
   11        0.354   6.236   3.052   9.642
   12        0.358   6.230   3.071   9.660
   13        0.337   6.207   3.007   9.551
   14        0.361   6.233   3.117   9.710
   15        0.359   6.234   3.094   9.688
   16        0.359   6.237   3.073   9.669
   17        0.366   6.234   3.070   9.670
   18        0.398   6.227   3.296   9.921
   19        0.373   6.231   3.129   9.734
   20        0.361   6.238   3.102   9.700
   21        0.355   6.222   3.025   9.602
   22        0.378   6.235   3.153   9.766
   23        0.396   6.231   3.277   9.904
   24        0.358   6.155   3.405   9.919
   25        0.355   6.215   3.057   9.627
   26        0.359   6.238   3.091   9.688
   27        0.362   6.244   3.095   9.701
   28        0.364   6.238   3.129   9.731
   29        0.337   6.210   3.007   9.555
   30        0.368   6.235   3.091   9.694
   31        0.361   6.244   3.081   9.686
   32        0.361   6.251   3.059   9.670
   33        0.364   6.252   3.088   9.704
   34        0.359   6.243   3.064   9.666
   35        0.362   6.237   3.095   9.693
   36        0.358   6.243   3.073   9.674
   37        0.356   6.241   3.052   9.648
   38        0.361   6.239   3.092   9.692
   39        0.357   6.241   3.044   9.642
   40        0.359   6.241   3.077   9.677
   41        0.361   6.236   3.099   9.697
   42        0.336   6.209   3.008   9.554
   43        0.381   6.228   3.187   9.795
   44        0.336   6.205   3.022   9.563
   45        0.358   6.243   3.041   9.643
   46        0.358   6.242   3.060   9.660
   47        0.359   6.234   3.092   9.685
   48        0.363   6.233   3.108   9.704
   49        0.339   6.205   3.025   9.569
   50        0.366   6.215   3.113   9.694
   51        0.355   6.233   3.066   9.653
   52        0.360   6.242   3.071   9.673
   53        0.366   6.249   3.081   9.696
   54        0.376   6.239   3.114   9.730
   55        0.351   6.207   3.044   9.602
   56        0.358   6.234   3.075   9.667
   57        0.360   6.240   3.069   9.669
   58        0.362   6.243   3.085   9.690
   59        0.360   6.237   3.096   9.693
   60        0.356   6.241   3.041   9.639
   61        0.360   6.233   3.100   9.693
   62        0.361   6.240   3.078   9.678
   63        0.357   6.239   3.069   9.665
   64        0.360   6.240   3.075   9.676
   65        0.359   6.242   3.065   9.666
   66        0.358   6.243   3.058   9.660
   67        0.356   6.241   3.040   9.636
   68        0.361   6.229   3.118   9.708
   69        0.353   6.235   3.039   9.627
   70        0.357   6.233   3.070   9.660
   71        0.359   6.241   3.071   9.671
   72        0.361   6.241   3.086   9.688
   73        0.360   6.239   3.105   9.704
   74        0.356   6.227   3.071   9.654
   75        0.354   6.235   3.048   9.637
   76        0.357   6.234   3.065   9.657
   77        0.359   6.240   3.067   9.666
   78        0.358   6.228   3.089   9.675
   79        0.364   6.224   3.093   9.682
   80        0.356   6.238   3.051   9.645
   81        0.362   6.245   3.074   9.681
   82        0.358   6.244   3.055   9.657
   83        0.356   6.227   3.090   9.674
   84        0.359   6.224   3.116   9.699
   85        0.357   6.234   3.077   9.668
   86        0.360   6.239   3.079   9.678
   87        0.360   6.238   3.080   9.678
   88        0.357   6.234   3.082   9.673
   89        0.356   6.239   3.055   9.650
   90        0.357   6.240   3.057   9.654
   91        0.360   6.242   3.087   9.689
   92        0.355   6.235   3.056   9.645
   93        0.355   6.237   3.050   9.642
   94        0.363   6.237   3.107   9.707
   95        0.357   6.250   3.037   9.643
   96        0.359   6.233   3.090   9.682
   97        0.352   6.236   3.033   9.621
   98        0.356   6.236   3.047   9.638
   99        0.359   6.245   3.076   9.679
  100        0.358   6.234   3.067   9.659
  101        0.355   6.229   3.062   9.646
  102        0.361   6.240   3.085   9.685
  103        0.361   6.235   3.099   9.695
  104        0.358   6.223   3.103   9.683
  105        0.371   6.228   3.115   9.714
  106        0.365   6.244   3.089   9.699
  107        0.359   6.244   3.060   9.664
  108        0.358   6.237   3.079   9.675
  109        0.345   6.204   3.014   9.563
  110        0.340   6.212   3.004   9.556
  111        0.364   6.232   3.130   9.726
  112        0.357   6.232   3.090   9.678
  113        0.360   6.237   3.098   9.695
  114        0.372   6.248   3.089   9.709
  115        0.417   6.341   4.144  10.901
  116        0.427   6.321   4.250  10.997
  117        0.424   6.317   4.241  10.981
  118        0.429   6.319   4.270  11.018
  119        0.427   6.321   4.247  10.994
  120        0.360   6.276   2.130   8.766
  121        0.357   6.273   2.123   8.753
  122        0.358   6.281   2.113   8.752
  123        0.371   6.300   2.157   8.828
  124        0.356   6.282   2.091   8.728
--------------------------------------------------
tot         44.864 773.680 382.9951201.540
 

 total amount of memory used by VASP MPI-rank0  6702056. kBytes
=======================================================================

   base      :      30000. kBytes
   nonl-proj :     799080. kBytes
   fftplans  :      67629. kBytes
   grid      :     159195. kBytes
   one-center:       1928. kBytes
   wavefun   :    5644224. kBytes
 
  
  
 General timing and accounting informations for this job:
 ========================================================
  
                  Total CPU time used (sec):     3967.372
                            User time (sec):     3349.999
                          System time (sec):      617.373
                         Elapsed time (sec):     3906.033
  
                   Maximum memory used (kb):    11104528.
                   Average memory used (kb):          N/A
  
                          Minor page faults:      2114615
                          Major page faults:           12
                 Voluntary context switches:       309534
