124
Lattice="-7.545998088651924 7.546311014689217 7.54745406786806 7.5469299715897655 -7.547915183884702 7.549990181031429 7.5460172019474445 7.547934301337258 -7.5490582840653" Properties=species:S:1:pos:R:3:forces:R:3 energy=-1124.753640093067 free_energy=-1124.753640093067 stress="0.0023081700390284207 0.0002626906969359257 0.0004083604531842417 0.0002626906969359257 0.006653180568869008 0.000303906185660635 0.0004083604531842417 0.000303906185660635 0.0015057683216468645" pbc="T T T"
Cr       3.06573076      -2.94186245       3.01514534       0.00681403      -0.00135264       0.00636771
Cr       3.01689779       9.03370505      -2.95178080      -0.00155366      -0.00229225       0.00354408
Cr       4.48040459       7.57383631      -1.49021503      -0.00141144      -0.00300641      -0.00031649
Cr       6.05637341       2.95475998       3.04999202      -0.00295417      -0.00351069       0.00228190
Cr       1.48341996       4.47527347       4.50965936      -0.00302357       0.00278768       0.00280197
Cr      -4.50559883       7.53814570       4.51309110       0.00769735       0.00107287       0.00793852
Ti       3.12902995      -0.01562114      -0.08121378       0.00018424       0.00083261      -0.00234952
Ti       4.59007552      -4.51876806       7.56934784       0.00050712       0.00415176       0.00616639
Ti       4.50787805       4.48937397       1.50128451       0.00156876       0.00601961      -0.00300135
Ti       1.55165506      10.53820245       1.52278209      -0.00595827      -0.01601628       0.00472884
Ti       4.47430755       7.56110999       4.39683982       0.00191302      -0.00250311      -0.00006686
V       -0.08294717       0.13261922      -0.08719069      -0.00833616       0.01468755       0.00360393
V        1.53161197       1.48394561      -1.61558405       0.00038535      -0.00270231      -0.02372868
V        3.03863923       3.05350297      -3.00864261       0.00496643       0.00572157       0.00351700
V        4.51339620       4.51841281      -4.51125882      -0.00067105       0.00003714       0.00209453
V        5.97860399       6.09013116      -5.98608470      -0.00530309       0.01208063       0.00125354
V        1.45668201       0.04162175       1.66317242      -0.00310233       0.00266862       0.01338885
V        4.52856587       1.50792391      -1.58209845      -0.01054003      -0.00958550       0.01448018
V        6.02875953       3.03152914      -3.08484286       0.00829498       0.00707217      -0.01181011
V        7.54396403       4.65440325      -4.59409787      -0.00345019      -0.00013199      -0.00733289
V        4.56100140      -1.54909384       1.56592942       0.00394740       0.00397819       0.00188514
V        6.03808265      -0.05349494       0.01061800      -0.00132740       0.00427298      -0.00275325
V        7.51312517       1.46419863      -1.59098639       0.00374749      -0.00206683       0.00246430
V        9.08231139       3.10756296      -3.13910170       0.00531422       0.00045130      -0.00307080
V        4.52223721      -4.49989472       4.49484531      -0.00184935       0.00199231       0.00015507
V        6.05649337      -3.04020967       3.00535640      -0.00556770      -0.00403545       0.00339502
V        7.54024556      -1.51108791       1.52764644      -0.00098588      -0.00441461       0.00087190
V        9.02068508      -0.02230839       0.01320372      -0.00242686       0.00394858       0.00074152
V       10.51991862       1.42939446      -1.60605286       0.00175107      -0.00452343      -0.00122578
V        6.11402549      -5.96075465       5.99377202       0.00941463      -0.00574097       0.00409135
V        7.56680389      -4.48350621       4.51251785      -0.01151030      -0.00392454       0.00534011
V        9.05780082      -2.99382363       3.06056789       0.00037731      -0.00092313       0.00148530
V       10.53559984      -1.52159807       1.55246615       0.00310675       0.00687971      -0.00099099
V       11.98898660       0.06072957       0.09950328       0.00855886      -0.00513604       0.00166622
V       -1.52582147       1.46559503       1.59708597      -0.01362720       0.00641463       0.00829182
V        0.09143951       2.96950030       0.07391071       0.01542088      -0.01197791       0.00403239
V        1.52975558       4.51711664      -1.50238158       0.00063509       0.00990032       0.00285051
V        3.00955211       6.04777115      -2.96633644      -0.00476345       0.00064264      -0.00014692
V        4.46281784       7.55797785      -4.46702540       0.00214104       0.00570741      -0.00018550
V       -0.23204306      -0.00724673       3.23659644      -0.00465611       0.00515875       0.00210596
V        2.91887589       2.90074704      -0.00820098      -0.02197185      -0.00845206       0.00973080
V        4.50031425       4.52266363      -1.51396408      -0.00141671      -0.00541001       0.00563996
V        5.94322495       6.04188829      -2.95463907      -0.00486048       0.01130820       0.00057722
V        1.52193419      -1.49093049       4.50795578      -0.00160377      -0.00322936       0.00699350
V        3.21337111      -0.02082804       3.19631977       0.00509343       0.00819095      -0.00007981
V        4.61286300       1.47144065       1.55504100       0.00601551       0.00116715      -0.01173715
V        7.49588668       4.60490046      -1.61169174       0.00267376      -0.00751569      -0.00568832
V        3.08099644      -2.88585710       5.92145045      -0.00106741      -0.00751607      -0.00820326
V        4.56108635      -1.55884649       4.54255714      -0.01142600       0.01118384      -0.00457964
V        6.05507095      -0.04917514       3.03145824      -0.00643105       0.00024206       0.00138657
V        7.50406923       1.47620780       1.60487509       0.00237243       0.00621645      -0.00016601
V        6.10567258      -2.99095752       6.02709256       0.00425995      -0.01024787       0.00242945
V        7.58944504      -1.50141119       4.54516750       0.00286626       0.00125510       0.00335243
V        9.05432019      -0.00341982       3.08176786      -0.00154908       0.00196125      -0.00367697
V       10.55850305       1.40787861       1.64140248      -0.00887767       0.00020802       0.00002225
V       -3.01820438       2.99944294       3.06905846      -0.00062889       0.00783279      -0.00081983
V       -1.45510795       4.51466091       1.54489020       0.00399341      -0.00174074      -0.00301817
V        0.01508719       6.03887449      -0.02259557      -0.00300319      -0.00328172      -0.00066060
V        1.51458462       7.57801152      -1.51517456      -0.00216051       0.00181010       0.00352002
V       -1.57796955       1.52802036       4.61198118       0.00062794       0.00183560      -0.00053102
V        0.01517902       2.95842087       3.01630874       0.00837543       0.00121943      -0.00913476
V        1.50337179       4.58022320       1.46980807       0.00217969       0.00563734       0.00090747
V        3.01914862       6.09416182      -0.06485490       0.00078140       0.00273147      -0.00354519
V        0.00202973       0.02388364       6.05881528       0.00300357      -0.00051650      -0.00028811
V        1.47309800       1.44370722       4.56871423      -0.00227389       0.00465926       0.00366444
V        6.01732233       6.11804947      -0.04602277       0.00065708       0.00074297       0.00061464
V        1.51371040      -1.44983012       7.54751230       0.00527553      -0.00244127      -0.00043647
V        3.01190585       0.00788285       6.04838955       0.00054406      -0.00321943      -0.00619565
V        4.57371676       1.51474665       4.55099016      -0.00359441      -0.01610010      -0.00378364
V        7.46603937       4.56344403       1.56291052      -0.00387496       0.00257887      -0.00534252
V        3.11095822      -2.88473753       9.20768906       0.00313656      -0.00325171      -0.00667002
V        4.56447145      -1.49703144       7.56659971       0.00157558       0.00060059      -0.00214042
V        6.06573940      -0.00535733       6.06571294       0.00716159       0.00577281       0.00634090
V        7.53147600       1.51630902       4.54336484      -0.00003154       0.00425717       0.00369834
V        9.10078334       2.98332407       3.10489421      -0.00200781      -0.00383040       0.00068876
V       -4.52480034       4.49849966       4.54780918      -0.00156439      -0.00448651      -0.00395045
V       -3.03751104       6.06983494       3.04454584       0.00231716      -0.00031976       0.00050568
V       -1.50557942       7.57689713       1.48198647       0.01016932       0.00299773       0.00127712
V       -0.01660127       9.04365620      -0.04157302       0.00240105       0.00328050      -0.00237070
V        1.54414522      10.57501503      -1.50723310      -0.00553880      -0.00129788      -0.00510953
V       -3.05132732       3.00969759       6.03172751       0.00279095       0.00135870       0.00240962
V       -1.54416858       4.48756393       4.55178596       0.00770024      -0.01132663      -0.00442316
V        1.50212661       7.57275484       1.46058432       0.00325639      -0.00296368      -0.00078269
V        3.07962601       9.01910631      -0.05171929      -0.00254201      -0.00254590       0.00166791
V       -1.55476900       1.51391099       7.52941922      -0.00341851      -0.00026433       0.00887444
V       -0.01440611       3.02034265       6.00405561      -0.00363741      -0.00429949       0.00189842
V        2.93447730       5.96326654       3.02439979      -0.00493402      -0.00884211       0.00315771
V        4.51119034       7.54486384       1.50145024      -0.00368739      -0.00660406       0.00482590
V       -0.00583340       0.01497683       8.99247684      -0.00119318      -0.00148188      -0.00098011
V        1.50360057       1.49167636       7.51598926       0.00024450       0.00856725       0.00099519
V        3.00514408       2.99879518       6.00677318       0.00310774      -0.00204747      -0.00565273
V        4.49683745       4.39405588       4.42495716      -0.00060616      -0.01400018      -0.00788935
V        6.11570853       6.02871536       2.93569681       0.00232057       0.00418694      -0.00481375
V        1.54068401      -1.50628112      10.55684335      -0.00216714      -0.00053289      -0.00713757
V        3.05940594       0.00231803       9.00995509      -0.00476355       0.00204074      -0.00335706
V        4.55380891       1.50769720       7.54856371       0.00724746       0.00759206      -0.00114296
V        6.04560182       2.95527960       6.06367587       0.00047124       0.00355413       0.00087259
V        7.61147131       4.39678734       4.45099416       0.00806994      -0.00670034      -0.00145271
V       -5.99488711       6.09550263       5.91361296       0.00694254       0.01279331      -0.01123908
V       -2.99891369       9.04996044       3.01917316       0.00408036       0.00023139      -0.00366284
V       -1.47107679      10.60809010       1.51348029       0.00298375       0.00015738      -0.00505426
V        0.21094032      12.21425229       0.14424148       0.03172921       0.01953319       0.01714894
V       -4.54899977       4.63249277       7.53087146      -0.00129216       0.00602523      -0.00953283
V       -3.01177627       5.99522958       5.98421777      -0.01022786       0.01281707       0.00445389
V       -1.52319021       7.54489980       4.52641504      -0.00183638       0.00463177       0.00065006
V       -0.05233508       9.08351941       3.01646038      -0.00593280       0.00043416      -0.00605574
V       -3.05554141       3.07506118       9.06250159       0.00019408      -0.00764658       0.00461450
V       -1.56099001       4.51085716       7.54189793      -0.00940620      -0.00399962       0.00636209
V       -0.01861560       6.01481175       6.03913036      -0.00055231       0.00341272      -0.00457105
V        1.49727418       7.54993103       4.51559642       0.00240280       0.00102640      -0.00259069
V        3.01398672       9.08179360       2.99292016      -0.00239988      -0.00408041       0.00027098
V       -1.49657841       1.57849388      10.48361064      -0.00128288      -0.00786739       0.00368632
V       -0.03335484       3.03515605       9.01601183       0.00020144      -0.00669629       0.00530748
V        2.92934051       5.97131687       6.01350996       0.00448732       0.00626410      -0.00095412
V        0.05517431       0.04958270      11.99548003      -0.00886417      -0.00214054       0.00940979
V        3.05437892       3.02117453       9.05262234       0.00218587      -0.00422419       0.00128621
V        4.48907843       4.44111883       7.64268591       0.00496172      -0.00047609       0.00358876
W        6.04128744       2.98964836      -0.04947029      -0.00417218      -0.00157115      -0.00354123
W        2.89163098       2.90940305       2.97142636      -0.01430568      -0.01028266      -0.00838954
W       -0.00857874       6.01509574       3.02993809      -0.00572687       0.00140843       0.00744541
W        1.48397948       4.51175582       7.54890512       0.00045232       0.00314390      -0.00623760
W        1.54488226       1.52289799      10.52573078       0.00252636       0.00228922      -0.00124163
Zr       9.11731430       3.08291224       0.00227526       0.00478385      -0.00727800      -0.00884779
Zr       6.03706720       5.95068635       6.06014911       0.00448193      -0.01106370       0.00283801
