124
Lattice="-7.545998088651924 7.546311014689217 7.54745406786806 7.5469299715897655 -7.547915183884702 7.549990181031429 7.5460172019474445 7.547934301337258 -7.5490582840653" Properties=species:S:1:pos:R:3:forces:R:3 energy=-1126.0570368372198 free_energy=-1126.0570368372198 stress="0.004678631673730143 1.7615478272303516e-05 0.0001564284633513667 1.7615478272303516e-05 0.006846905364431694 0.0012595847581973196 0.0001564284633513667 0.0012595847581973196 0.0037719569476614956" pbc="T T T"
Cr       3.06879144      -2.90871071       3.03948256       0.00023339       0.04444113       0.03599476
Cr       3.02608153       9.03758454      -2.94765459       0.00837025       0.00412126       0.00518867
Cr       4.48910755       7.57681049      -1.49983335       0.00988130       0.00703190      -0.01062575
Cr       6.05938430       2.95659207       3.05541503      -0.00719286      -0.00202081       0.00584559
Cr       1.48260023       4.48794816       4.50941419      -0.00005481       0.02142914       0.00195101
Cr      -4.50230184       7.53499992       4.52147559       0.00104167       0.01386416       0.02706114
Ti       3.03103888       0.11241681       0.01756745      -0.24258650       0.20498215       0.22567539
Ti       4.58834492      -4.51321892       7.56858379      -0.00302803       0.00405393      -0.00135607
Ti       4.51616099       4.50151590       1.50243894       0.01265724       0.02337518       0.00011842
Ti       1.55394783      10.64780379       1.52095588       0.00633692       0.13696152      -0.00512408
Ti       4.47618812       7.57081000       4.39994446       0.01379242      -0.00123982       0.00501333
V        0.01588466       0.19998945       0.00135114       0.23514500       0.09492996       0.23329354
V        1.52997481       1.52007751      -1.67018089       0.00419907       0.05479450      -0.09461832
V        3.04610728       3.06001197      -3.01848329       0.01733278       0.01273416      -0.01772968
V        4.51544281       4.52774684      -4.50738115      -0.00027641       0.00907279      -0.00097369
V        6.01643658       6.09539322      -5.98411135       0.04100104       0.03133149       0.01370149
V        1.45823866      -1.11446562       1.62195713       0.01971985      -1.62458990      -0.07122619
V        4.51704889       1.50153008      -1.56965647      -0.04853308      -0.02076803       0.05025702
V        6.02698943       3.03826611      -3.07975839       0.00695050       0.00585980      -0.01198267
V        7.51303703       4.67165193      -4.54077661      -0.04198606       0.01666104       0.08221933
V        4.51705951      -1.52738150       1.56649454      -0.05993607       0.02519821       0.02078288
V        6.03512740      -0.05867333       0.00751286      -0.01233720       0.01355792       0.00121217
V        7.51083943       1.46543803      -1.59283375       0.00012895      -0.00697206       0.00145518
V        9.07965904       3.10825619      -3.12564671       0.01009478      -0.02254105       0.01764266
V        4.52809729      -4.49702194       4.50362825       0.00960696      -0.01267576       0.01534169
V        6.06029337      -3.03819664       3.01295020       0.00340192      -0.00695772       0.00734698
V        7.53214535      -1.50853205       1.52870386      -0.01862344       0.00790417       0.00123574
V        9.02085821      -0.01829214       0.01376718      -0.00609128       0.00563771      -0.00212313
V       10.52234626       1.43396948      -1.60610605      -0.00317485      -0.00211601      -0.00832839
V        6.14338886      -5.98515866       6.02974168       0.04660563      -0.03129447       0.04128858
V        7.55920589      -4.47830062       4.50923242      -0.01514853      -0.00143298      -0.00243132
V        9.06004978      -2.98698029       3.05614851       0.00137613       0.01146284      -0.00698435
V       10.55094191      -1.51694690       1.55156008       0.02028555       0.00340698      -0.00490528
V       11.99355925       0.05612177       0.09455500       0.01636352      -0.00430330      -0.00099887
V       -1.56609302       1.48581193       1.58862015      -0.07459998       0.04056769      -0.00201576
V        0.09804812       2.98472359       0.06980837       0.00836170      -0.00792257      -0.00777031
V        1.52996970       4.52761237      -1.50807158       0.00837020       0.02175922      -0.01426474
V        3.01521906       6.05682136      -2.96748651       0.00720459       0.01831582      -0.00656255
V        4.47724285       7.55018254      -4.46485929       0.02697590       0.01085852       0.00410627
V       -0.12267726       0.06745645       3.13514764       0.21257383       0.10388540      -0.22136514
V        2.91230200       2.92459493      -0.00290091       0.00101049       0.02405297      -0.00872039
V        4.49733155       4.52786647      -1.51199703       0.00922658       0.00875816      -0.00746666
V        5.96091912       6.06631699      -2.96727810       0.02409397       0.05637914      -0.02127741
V        1.52349858      -1.48409190       4.50392495       0.00138091       0.01544997       0.00049780
V        3.10756905       0.04237374       3.10583816      -0.22805788       0.08565949      -0.21123925
V        4.66867911       1.50556276       1.56146600       0.09968197       0.05767047       0.00336876
V        7.48706208       4.60993865      -1.60182303      -0.00622088       0.00110751       0.00555637
V        3.09365338      -2.88686442       5.93590660       0.02281722      -0.00367580       0.01344644
V        4.54173893      -1.54711573       4.52607208      -0.03742947       0.02298850      -0.03534403
V        6.05176624      -0.05774049       3.04121716      -0.02962554       0.00609665       0.01582374
V        7.51406355       1.47553212       1.60529888       0.01637963      -0.00786145      -0.00369183
V        6.10457735      -2.98887588       6.02675719      -0.00781501       0.00184483      -0.00439621
V        7.58811758      -1.49522542       4.54322538      -0.00062128       0.01055139      -0.00689180
V        9.05679152       0.00122279       3.08553384      -0.00600719       0.00820618       0.00503474
V       10.55646475       1.40427580       1.64536665      -0.02242278      -0.01172314       0.00507323
V       -3.01651503       2.99971137       3.07127930       0.00159094       0.00550868       0.00182627
V       -1.45932995       4.52762690       1.54794478       0.00176046       0.01571731       0.00679353
V        0.01134881       6.05091025      -0.02487622      -0.00793442       0.01197181      -0.00354957
V        1.51634927       7.59037182      -1.51480290       0.00454233       0.02230953       0.01165539
V       -1.54434250       1.50709822       4.57647276       0.07398112      -0.04611026      -0.06650848
V        0.02011235       2.97871488       2.99670915       0.00518082       0.01992284      -0.01441705
V        1.49943097       4.60110090       1.46323411       0.00610166       0.01919612       0.00550702
V        3.02240945       6.10263600      -0.06609327       0.00300026       0.01904166      -0.00774043
V        0.00051705       0.01653173       6.05401709      -0.00292526       0.01052913      -0.01747203
V        1.47652008       1.47096812       4.60398909       0.00504950       0.05881697       0.07303339
V        6.01790498       6.12625403      -0.04349871      -0.00054004       0.01686989      -0.00692906
V        1.51493863      -1.44833784       7.54488326       0.00420484       0.00454490      -0.01791758
V        3.02052552      -0.00060061       6.04388894       0.01527351       0.00016088      -0.02486618
V        4.55224134       1.48690371       4.52777255      -0.05056113      -0.05617013      -0.05431899
V        7.47658143       4.57244104       1.56867386       0.01359903       0.01127726      -0.00519060
V        3.10505346      -2.87817792       9.21928903      -0.00448864       0.01911914       0.01147114
V        4.56509843      -1.49387866       7.56861345       0.00417442       0.01054066      -0.00537273
V        6.05973964      -0.00726571       6.06005360      -0.00506707       0.00867470      -0.00698037
V        7.53018254       1.51588082       4.54833279      -0.00334046       0.00318113       0.00914857
V        9.10250281       2.98391694       3.11269494      -0.00382052      -0.00495193       0.00917520
V       -4.52195380       4.50786349       4.55836649       0.00063791       0.00696166       0.00733652
V       -3.03916917       6.07550802       3.05525084      -0.01130069       0.01380590       0.01944555
V       -1.50337431       7.58822056       1.48248315       0.00581652       0.01796334       0.00088054
V       -0.00666336       9.06192527      -0.03231975       0.01273857       0.02313448       0.01136228
V        1.54332570      10.58198257      -1.50276065       0.00468959       0.00251547       0.00034498
V       -3.04585235       3.01583034       6.02525218       0.00511752       0.01656174      -0.00136584
V       -1.54644083       4.48420043       4.55016990       0.00260678       0.00088129       0.00351008
V        1.50264492       7.58881629       1.46116347       0.00048997       0.02095392       0.00323204
V        3.07329259       9.03515855      -0.04362279      -0.00549039       0.01537657       0.01831101
V       -1.56099356       1.51632372       7.51814548      -0.00741071       0.00149510      -0.01063763
V       -0.01513395       3.02393976       5.99830995       0.00038269       0.00116537      -0.00904305
V        2.93389131       5.97197172       3.02652002      -0.00950035       0.00947806       0.00690291
V        4.50780813       7.55986880       1.49989062      -0.00709909       0.01813683       0.00457109
V       -0.01066687       0.01851590       8.99311993      -0.01054497       0.00001339      -0.00683456
V        1.50214970       1.49358782       7.52037568      -0.00111092      -0.00614404       0.00721086
V        3.00794501       3.00147598       6.00329438       0.00392920       0.00034359      -0.00764896
V        4.49475751       4.39086946       4.42048415      -0.00512982      -0.00524137      -0.00890336
V        6.11748715       6.03157546       2.93878555       0.01508751       0.00314251       0.00077057
V        1.54124576      -1.50189261      10.57456247      -0.00059273       0.00567652       0.02089221
V        3.06434837       0.00623430       9.00988228       0.00672073       0.00257162      -0.00776221
V        4.55597922       1.50695786       7.54466654       0.00663361      -0.00037660      -0.01108352
V        6.04266088       2.96024185       6.06372472       0.00087855       0.01621498       0.00617201
V        7.60578817       4.39961376       4.46029721       0.00072851      -0.00191213      -0.00391080
V       -5.99515421       6.10842515       5.97759649      -0.00171230       0.03853683       0.07427133
V       -2.99597034       9.05606207       3.02110507       0.00248177       0.00540046      -0.00023851
V       -1.47439329      10.61294985       1.51161771      -0.00703377      -0.00497951      -0.00663912
V        0.11362103      12.18596469       0.08466237      -0.13944712      -0.03307634      -0.06350694
V       -4.51610776       4.67179976       7.50985199       0.06125149       0.03209461      -0.03186297
V       -3.02755365       6.02317603       6.00516128      -0.03799654       0.05431010       0.04371876
V       -1.52950345       7.54687301       4.53329441      -0.01941619       0.00907846       0.01460093
V       -0.03676186       9.09402668       3.00691327       0.01903803       0.01148991      -0.01637908
V       -3.05096883       3.08638864       9.05501141       0.00870815      -0.00890763      -0.00643426
V       -1.56409166       4.51729422       7.53747954      -0.00641049       0.00833390      -0.00176901
V       -0.02401423       6.01892048       6.03970272      -0.01150098       0.01328218       0.01145191
V        1.49672295       7.56335919       4.51311540       0.00386853       0.01592680      -0.00347105
V        3.00306229       9.09632785       2.97876198      -0.00826980       0.01467076      -0.00252472
V       -1.49862948       1.58591823      10.48254146      -0.00807763       0.00846165      -0.00070310
V       -0.03817111       3.03740019       9.01344126      -0.00722005      -0.00023123      -0.00266763
V        2.92722329       5.97645269       6.01237388       0.00406908       0.00342552      -0.00081216
V        0.05392134       0.03608255      11.99681952       0.00360436      -0.00815617       0.01861136
V        3.05473533       3.02286432       9.04962284       0.00133357      -0.00180659      -0.00848893
V        4.49200604       4.43821795       7.63508473      -0.00314802      -0.00804006      -0.00432598
W        6.04920191       3.00188447      -0.05270409       0.00331067       0.00367500      -0.01356194
W        2.88986773       2.92298836       2.95758870       0.00110726      -0.00614207       0.00046339
W       -0.01164681       6.02618286       3.03318121      -0.00532137       0.01290502      -0.00182864
W        1.48327228       4.51686137       7.55036107      -0.00412173       0.00635979       0.00489747
W        1.54423979       1.52234993      10.51785473       0.00662103      -0.00294708      -0.01006742
Zr       9.12069674       3.08053314       0.00390368       0.00959508      -0.00462043       0.00006622
Zr       6.02484115       5.97937637       6.05299980       0.01579487       0.04921866       0.01098093
