124
Lattice="-7.545998088651924 7.546311014689217 7.54745406786806 7.5469299715897655 -7.547915183884702 7.549990181031429 7.5460172019474445 7.547934301337258 -7.5490582840653" Properties=species:S:1:pos:R:3:forces:R:3 energy=-1125.0345951990353 free_energy=-1125.0345951990353 stress="0.00255741639782754 0.0005948906309561818 0.00035340391195292617 0.0005948906309561818 0.0065004134093110625 -6.441494250329626e-05 0.00035340391195292617 -6.441494250329626e-05 0.0018000650085062781" pbc="T T T"
Cr       3.07308975      -2.97571035       3.01973054       0.02789430      -0.06970231       0.02161644
Cr       3.01725366       9.03102207      -2.95409140      -0.00510002      -0.01154247      -0.00383189
Cr       4.48117829       7.57459134      -1.49071537      -0.00426116      -0.00341742       0.00292585
Cr       6.05318336       2.95528267       3.05408263      -0.00552322      -0.00029708       0.00870391
Cr       1.48254705       4.47001988       4.51082364      -0.00533298      -0.00410885       0.00659925
Cr      -4.50445609       7.54200879       4.51253277       0.00959815       0.00772054       0.00388113
Ti       3.11770408      -0.07497217      -0.07412740      -0.01382823      -0.11433455       0.00659877
Ti       4.59067665      -4.52112576       7.56573741      -0.00233057       0.00331303       0.00014577
Ti       4.50625711       4.48332219       1.49960559      -0.00192908      -0.00428849      -0.00739766
Ti       1.55388776      10.52333831       1.52180949      -0.00182167      -0.05019695       0.00122804
Ti       4.47528907       7.55823461       4.39732389       0.00333954      -0.01143266      -0.00009293
V       -0.07561416       0.08880009      -0.07861082       0.00585787      -0.06022478       0.01759650
V        1.53247785       1.47894969      -1.58424737       0.00453323      -0.01474180       0.03770082
V        3.03999892       3.05208397      -3.00341240       0.00525420       0.00395658       0.01273989
V        4.51257420       4.51854140      -4.50850950      -0.00364850      -0.00202807       0.00777747
V        5.96036701       6.08639233      -5.98551498      -0.04361966       0.01260494       0.00358049
V        1.45398651       0.52648563       1.65584658      -0.01525888       1.02078256      -0.00352132
V        4.52349503       1.50225035      -1.57783009      -0.01494467      -0.01958197       0.02218531
V        6.02919709       3.03183287      -3.08591524       0.00930626       0.00869234      -0.01378701
V        7.55215690       4.63912955      -4.59595209       0.00970415      -0.03226602      -0.00710677
V        4.57662039      -1.56222195       1.56758167       0.03538347      -0.02323258       0.00225839
V        6.03557823      -0.04910819       0.01117808      -0.00331345       0.01279161      -0.00405935
V        7.51051914       1.46440049      -1.59091699      -0.00043650      -0.00349671       0.00820277
V        9.08406572       3.10375887      -3.13698136       0.00867543      -0.00843924       0.00406148
V        4.52127411      -4.49908515       4.49363514      -0.00149408       0.00361295       0.00100806
V        6.06049302      -3.03857732       3.00493663       0.00305544       0.00056532       0.00187547
V        7.54114877      -1.51032207       1.52759457       0.00230893      -0.00236191       0.00023254
V        9.01985146      -0.02515234       0.01260192      -0.00696709       0.00069134      -0.00148734
V       10.51866431       1.42689073      -1.60388406      -0.00386323      -0.01046686       0.00386965
V        6.11585062      -5.96108116       5.99652755       0.00204138      -0.00592168       0.00392736
V        7.56631074      -4.48419993       4.51656656      -0.01097158      -0.00394224       0.01354528
V        9.05749803      -2.99433039       3.06440769      -0.00002347       0.00017644       0.00936965
V       10.53431275      -1.52333009       1.55404717      -0.00214276       0.00233603       0.00169658
V       11.98385233       0.06744306       0.09864583      -0.00553802       0.00537075      -0.00065343
V       -1.50965741       1.46436632       1.59442867       0.01318362       0.00491375       0.00593493
V        0.07242705       2.95875900       0.06039591      -0.02874560      -0.02919997      -0.02882366
V        1.52873016       4.51341549      -1.50165464       0.00086313       0.00292044       0.01094771
V        3.01218814       6.04587964      -2.96435024      -0.00535233      -0.00417215       0.00559153
V        4.45990498       7.56360238      -4.46435964      -0.00799278       0.01461042       0.00543455
V       -0.21393635      -0.04591184       3.22089234       0.02914585      -0.06575583      -0.02489097
V        2.93400634       2.87621862      -0.01710583       0.01313185      -0.06544686      -0.01071826
V        4.50048457       4.52048769      -1.51463452      -0.00183405      -0.01052060       0.01233683
V        5.95316320       6.04970315      -2.96454324       0.01523436       0.02621404      -0.01988033
V        1.52219209      -1.49525205       4.51344147       0.00080562      -0.01130865       0.01717210
V        3.18909597      -0.06622782       3.17645318      -0.02966454      -0.07635169      -0.02601152
V        4.58851213       1.46230485       1.55070597      -0.04401928      -0.01838666      -0.01817079
V        7.49699900       4.60510919      -1.61163182       0.00780012      -0.00669366      -0.00739121
V        3.07925250      -2.88477543       5.92605145      -0.00772017      -0.00692020       0.00187802
V        4.55216085      -1.54857085       4.53270185      -0.03325298       0.03127523      -0.02927398
V        6.05366269      -0.04211258       3.03193763      -0.00805510       0.01342365       0.00330528
V        7.49572160       1.47572634       1.60497397      -0.01311979       0.00612434       0.00075487
V        6.10557457      -2.98785939       6.02682964       0.00761804      -0.00161659       0.00586776
V        7.58941112      -1.50176412       4.54641335       0.00580800       0.00163486       0.00820107
V        9.05391962      -0.00624987       3.08257152      -0.00374293      -0.00161568      -0.00401773
V       10.56045009       1.40680038       1.64189288      -0.00461889      -0.00017129      -0.00111391
V       -3.01791280       2.99798408       3.07031509      -0.00236732       0.00643432      -0.00252759
V       -1.45504281       4.50735255       1.54480667       0.00761202      -0.01938536      -0.00271600
V        0.01784122       6.03679901      -0.02095215       0.00399685      -0.01092941       0.00339908
V        1.51458700       7.57399522      -1.51633143      -0.00253658      -0.00510538       0.00472593
V       -1.57375448       1.52430365       4.60813701       0.00550975      -0.00482058      -0.00496784
V        0.00292952       2.94556527       3.03041672      -0.01985331      -0.02279476       0.02611698
V        1.50580626       4.55724797       1.47108232       0.00304978      -0.05199079      -0.00011969
V        3.01590451       6.09217060      -0.06208019      -0.00731911       0.00112948       0.00265962
V       -0.00058100       0.02779755       6.06115259       0.00001737       0.00494375       0.00502065
V        1.47429695       1.44232830       4.56234975      -0.00395432       0.00097906      -0.00629542
V        6.01559636       6.11511051      -0.04928652      -0.00770180      -0.00341830      -0.00159318
V        1.51383836      -1.44966963       7.54852157       0.00670297      -0.00314604       0.00550269
V        3.01299780       0.01240405       6.04703786       0.00370057       0.00220276      -0.00800578
V        4.56958193       1.51248622       4.54853846      -0.00959060      -0.01842137      -0.00518666
V        7.46344733       4.56188013       1.56231924      -0.00800966       0.00300590      -0.00770310
V        3.11168997      -2.88346188       9.20545997       0.00665528      -0.00132497      -0.01526747
V        4.56541387      -1.49618367       7.56463985       0.00525880       0.00316891      -0.00538746
V        6.06429489      -0.00372965       6.06476708       0.00683797       0.01067978       0.00907015
V        7.53024329       1.51561655       4.54354888       0.00225033       0.00302340       0.00293305
V        9.10123953       2.98020066       3.10216743      -0.00166325      -0.00969880      -0.00931680
V       -4.52220935       4.49643927       4.54032977       0.00355842      -0.01092899      -0.02134211
V       -3.03584213       6.06778734       3.04312601       0.00550804      -0.00312545      -0.00470840
V       -1.50615265       7.57266036       1.48155736       0.01075878      -0.00530686       0.00138482
V       -0.01834508       9.04137200      -0.04188264      -0.00239484      -0.00508418      -0.00432784
V        1.54290896      10.57326778      -1.51012994      -0.00920763      -0.00613718      -0.01181767
V       -3.05145321       3.00761593       6.03137394       0.00508674      -0.00423118       0.00018082
V       -1.54363006       4.48746127       4.55310197       0.01636415      -0.01127069      -0.00324416
V        1.50119172       7.56619179       1.45917212       0.00119215      -0.02148872      -0.00312613
V        3.08017027       9.01616617      -0.05392758      -0.00028435      -0.01397404      -0.00548832
V       -1.55423186       1.51172300       7.53004217       0.00067919      -0.00646867       0.01311372
V       -0.01605795       3.01887402       6.00673927      -0.00485763      -0.00494046       0.00943328
V        2.93148491       5.96452936       3.01665321      -0.01143113      -0.00518304      -0.01181206
V        4.51247314       7.54060905       1.50019047      -0.00210329      -0.01732609       0.00266582
V       -0.00554866       0.01301247       8.99417990      -0.00215440      -0.00488266      -0.00085156
V        1.50398558       1.49014151       7.51438636       0.00213027       0.00453363      -0.00052048
V        3.00811034       2.99818620       6.01187453       0.01082458      -0.00260812       0.00595310
V        4.50015952       4.39921001       4.42989446       0.00488903      -0.00100240       0.00239695
V        6.11527589       6.02673187       2.93398821      -0.00114219       0.00138102      -0.01172753
V        1.54028894      -1.50711071      10.55451845      -0.00397613      -0.00268165      -0.01509805
V        3.05973005       0.00061806       9.01063119      -0.00503852      -0.00045161      -0.00399630
V        4.55407004       1.50708485       7.54973407       0.00639192       0.00591879       0.00471187
V        6.04619389       2.95557990       6.06525848      -0.00109339       0.00457135       0.00208217
V        7.60712633       4.39670210       4.44828920       0.00110317      -0.00621880      -0.00695379
V       -5.99108995       6.08165426       5.88735328       0.01314697      -0.01324959      -0.07117477
V       -2.99996980       9.04831317       3.02214749      -0.00081364      -0.00756801       0.00027906
V       -1.47139972      10.60943930       1.51606075       0.00355553       0.00315813      -0.00105580
V        0.21944509      12.21476144       0.14784704       0.04912494       0.02013411       0.02730251
V       -4.54055421       4.60512010       7.52709579       0.02343101      -0.05472532      -0.02191335
V       -3.01278087       5.99702223       5.98592821      -0.01226603       0.01180525       0.00615802
V       -1.52316305       7.54399480       4.52605922      -0.00029555       0.00227764      -0.00387128
V       -0.05392989       9.08237860       3.01831902      -0.01193264      -0.00920727       0.00042356
V       -3.05254246       3.06839107       9.06409351       0.00878284      -0.02324421       0.00891496
V       -1.55715486       4.50935710       7.54252304      -0.00342850      -0.00781779       0.00934410
V       -0.01896051       6.01343533       6.03798944       0.00219904       0.00344563      -0.00702184
V        1.49571874       7.54483176       4.51569784       0.00254017      -0.01111485      -0.00336580
V        3.01400370       9.07516772       2.99407324      -0.00217847      -0.02259865       0.00354636
V       -1.49390598       1.57592235      10.48483937       0.00422312      -0.01568912       0.00354972
V       -0.02956585       3.03237926       9.01685060       0.00813810      -0.01185792       0.00803851
V        2.92911953       5.96891382       6.01345410       0.00330619       0.00686033      -0.00483409
V        0.05381813       0.05955817      11.99398926      -0.00909927       0.01437931       0.00539561
V        3.05277477       3.01860492       9.05507905      -0.00141478      -0.00921862       0.00657836
V        4.48825161       4.44005290       7.64205193       0.00245913      -0.00251076       0.00509113
W        6.03837539       2.98726962      -0.05062901      -0.01312896      -0.00790963      -0.00639612
W        2.90561277       2.89917620       2.98551253       0.01482550      -0.03720524       0.02073643
W       -0.00653992       6.00939987       3.02775118       0.00103202      -0.01004937      -0.00178871
W        1.48425242       4.51078398       7.54975559       0.00212588       0.00409534      -0.00487754
W        1.54625979       1.52319643      10.53157975       0.00614404       0.00139850       0.00799352
Zr       9.11504103       3.07971225       0.00663628       0.00073819      -0.01566880       0.00263593
Zr       6.04505030       5.95868580       6.06893519       0.01531085      -0.00509138       0.01454077
