124
Lattice="-7.545998088651924 7.546311014689217 7.54745406786806 7.5469299715897655 -7.547915183884702 7.549990181031429 7.5460172019474445 7.547934301337258 -7.5490582840653" Properties=species:S:1:pos:R:3:forces:R:3 energy=-1125.1348871696605 free_energy=-1125.1348871696605 stress="0.0029200218923710543 9.870445471534721e-05 0.00024532785677610356 9.870445471534721e-05 0.006777793419768853 0.000769255250852724 0.00024532785677610356 0.000769255250852724 0.001922796461725657" pbc="T T T"
Cr       3.07145146      -2.92474436       3.03097151       0.01969092       0.02720378       0.03485701
Cr       3.02021525       9.03637765      -2.94836096       0.00099921       0.00360117       0.00814251
Cr       4.48189169       7.57442570      -1.49219017       0.00033855      -0.00011488      -0.00009875
Cr       6.05952419       2.95550297       3.05263321       0.00215367      -0.00460897       0.00572171
Cr       1.48385978       4.48061075       4.50825188      -0.00410365       0.01144268       0.00282118
Cr      -4.50381726       7.53383642       4.51333998       0.00829735      -0.00446063       0.01301700
Ti       3.11271565       0.05508691      -0.06429989      -0.02172802       0.13354664       0.01556675
Ti       4.58723475      -4.51535842       7.56990778      -0.00519804       0.00889289       0.00671487
Ti       4.51362836       4.49485350       1.50237894       0.01253269       0.01642583       0.00259321
Ti       1.55317927      10.59022064       1.52409443      -0.00124975       0.07832289       0.00624899
Ti       4.47297816       7.56457594       4.39624376       0.00148383       0.00244068      -0.00242771
V       -0.05903258       0.17106424      -0.07022591       0.01577144       0.08621688       0.01489757
V        1.52825912       1.49887223      -1.64253702      -0.00440282       0.02024141      -0.07618669
V        3.04098707       3.05617495      -3.01581401       0.00611901       0.00979750      -0.01059875
V        4.51540004       4.52247113      -4.51030657       0.00275749       0.00648615      -0.00035494
V        6.00282603       6.09082838      -5.98763792       0.03846358       0.01747261      -0.00379869
V        1.44467011      -0.56945793       1.64369621      -0.01725569      -1.13196758      -0.01792160
V        4.52674003       1.50702807      -1.58001526      -0.02121525      -0.01152110       0.02399839
V        6.02812859       3.03296444      -3.08464232       0.01034266       0.00765005      -0.01965268
V        7.52748928       4.66775448      -4.56899262      -0.03196240       0.02640014       0.03895841
V        4.53744856      -1.53792300       1.56557394      -0.03693598       0.02572667       0.00554909
V        6.03872894      -0.05790936       0.00942493       0.00048170      -0.00007883      -0.00503292
V        7.51240364       1.46525751      -1.59232299       0.00385645       0.00023679       0.00323716
V        9.07927796       3.11325161      -3.13569701       0.00300649       0.01060935      -0.00406255
V        4.52481067      -4.50022317       4.49859453       0.00037818      -0.00498655       0.00566932
V        6.05868656      -3.03930627       3.00869188      -0.00249644      -0.00489802       0.00777015
V        7.53572919      -1.51073705       1.52789003      -0.01030110      -0.00051121       0.00269157
V        9.02024650      -0.01967941       0.01383498      -0.00560090       0.00663017       0.00333476
V       10.52121339       1.43221443      -1.60609860       0.00386799       0.00021065      -0.00278123
V        6.12631319      -5.97393607       6.01155695       0.03983068      -0.03131619       0.04174420
V        7.56527582      -4.48066791       4.50924331      -0.01277207      -0.00301013       0.00020252
V        9.05908286      -2.98947941       3.05674103       0.00422960       0.00821977      -0.00866039
V       10.54230712      -1.52024255       1.55201229       0.01528025       0.00819550      -0.00307462
V       11.98902304       0.05627101       0.09888369       0.01140237      -0.01289736       0.00048697
V       -1.54059198       1.47013116       1.59301249      -0.03974532       0.00995629       0.00244772
V        0.09362814       2.98510009       0.07184062       0.01641263       0.01567412       0.00163284
V        1.53065907       4.52127276      -1.50577407       0.00412896       0.01835477      -0.00502916
V        3.01118542       6.05222793      -2.96729922      -0.00458928       0.00884250      -0.00627724
V        4.46773455       7.55265063      -4.46537732       0.01292144       0.00165149       0.00215795
V       -0.20227452       0.03944526       3.21495874       0.03447996       0.08806262      -0.02326221
V        2.91492649       2.91904219      -0.00404595      -0.02338553       0.02895309       0.01612207
V        4.49871765       4.52514631      -1.51300484      -0.00007764      -0.00168940       0.00515829
V        5.94993269       6.05022597      -2.95982412       0.00786673       0.02566367      -0.00708670
V        1.52429665      -1.49256565       4.50553480       0.00515971      -0.00584045       0.00478151
V        3.18849876       0.02128347       3.17956492      -0.03187524       0.07949398      -0.02239703
V        4.63855887       1.48206433       1.55864253       0.05557629       0.01707450      -0.00404696
V        7.49049176       4.60598308      -1.60813988      -0.00611324      -0.00846979       0.00025657
V        3.08831618      -2.88760449       5.92913520       0.01359229      -0.01358960       0.00359424
V        4.55503138      -1.55631654       4.53811856      -0.01794277       0.01643207      -0.01322268
V        6.05868237      -0.05505373       3.03707644      -0.00370030      -0.00786546       0.01134750
V        7.50933944       1.47703424       1.60584550       0.01254772       0.00789720       0.00052459
V        6.10542086      -2.98905995       6.02717055       0.00096450      -0.00759323       0.00062365
V        7.59018917      -1.49934874       4.54406782       0.00566140       0.00394116      -0.00282942
V        9.05530538       0.00011076       3.08366992      -0.00263790       0.00794035       0.00004642
V       10.55835026       1.40740411       1.64460418      -0.01359192      -0.00004641       0.00530363
V       -3.02082096       3.00078091       3.07143371      -0.00541586       0.00906469       0.00435160
V       -1.45906525       4.52088592       1.54824950      -0.00173912       0.01262355       0.00565732
V        0.01300491       6.04575027      -0.02336675      -0.00690806       0.01226926      -0.00153495
V        1.51538214       7.58383755      -1.51461176      -0.00094735       0.01377442       0.00803358
V       -1.56487891       1.52001077       4.59729278       0.03192870      -0.01708808      -0.03251435
V        0.01677628       2.97598212       3.00712246       0.00917492       0.03148995      -0.02311326
V        1.50072711       4.59513407       1.46637094       0.00154138       0.03427646       0.00326206
V        3.02154232       6.09737597      -0.06501608       0.00450083       0.01122940      -0.00397213
V        0.00166896       0.01789392       6.06076490       0.00191940      -0.00658792       0.00370172
V        1.47475593       1.44887955       4.57912600       0.00033012       0.00942838       0.02304138
V        6.01676709       6.12217749      -0.04360832       0.00120997       0.01024401       0.00500216
V        1.51435668      -1.44996717       7.54618111       0.00672514      -0.00222968      -0.00568020
V        3.01603433       0.00237854       6.05205521       0.01061878      -0.00938871      -0.00061264
V        4.56524052       1.50183779       4.54060796      -0.01992191      -0.04441759      -0.02455617
V        7.47265068       4.56827623       1.56564169       0.01057027       0.00917065      -0.00522996
V        3.10728540      -2.88116537       9.21301446      -0.00770688       0.00627016       0.00094686
V        4.56499897      -1.49582796       7.56932946       0.00162548       0.00448157       0.00457500
V        6.06545376      -0.00820594       6.06579587       0.00723113       0.00257181       0.00734464
V        7.53135428       1.51638773       4.54545885       0.00038529       0.00468789       0.00692834
V        9.10113571       2.98441331       3.10833568      -0.00204031      -0.00251699       0.00729608
V       -4.52487052       4.50202212       4.55355431      -0.00461966      -0.00127769       0.00837027
V       -3.03892997       6.07273518       3.04902244      -0.00442379       0.00835641       0.00943586
V       -1.50454319       7.58331973       1.48234165       0.01175456       0.01522544       0.00075610
V       -0.01179172       9.05030402      -0.03716024       0.01188697       0.01354107       0.00788811
V        1.54230992      10.57894699      -1.50422077      -0.00788892       0.00678227       0.00089370
V       -3.05164369       3.01145635       6.03105881      -0.00562407       0.00800160       0.00885584
V       -1.54509329       4.48658218       4.55146051       0.01073742      -0.00875925      -0.00593153
V        1.50197077       7.58162826       1.46135708       0.00364191       0.01739954       0.00009355
V        3.07532256       9.02602870      -0.04727043      -0.01211239       0.00956626       0.01520680
V       -1.55758060       1.51560427       7.52460412      -0.00775463       0.00303263       0.00187529
V       -0.01501179       3.02312782       6.00282128      -0.00473080      -0.00142350      -0.00265300
V        2.93533057       5.96882396       3.02653602      -0.00609105       0.00517956       0.00506879
V        4.50938089       7.55205666       1.50093026      -0.00633859       0.00794568       0.00446181
V       -0.00771833       0.01763228       8.99285720      -0.00490674       0.00274983      -0.00247841
V        1.50285563       1.49383825       7.51828190      -0.00077623       0.00985461       0.00304239
V        3.00602137       3.00032305       6.00495248       0.00163290      -0.00002084      -0.00703939
V        4.49515671       4.39332200       4.42349614      -0.01152891      -0.01858409      -0.01444596
V        6.11715301       6.02960681       2.93683901       0.01167825       0.00652145      -0.00433890
V        1.54104314      -1.50535497      10.56519735      -0.00137059       0.00285203       0.00830176
V        3.06173585       0.00561338       9.01050041      -0.00089549       0.00723857      -0.00394804
V        4.55447079       1.50808806       7.54742071       0.00706832       0.00695089      -0.00237102
V        6.04566529       2.95471807       6.06522628       0.00437674       0.00060480       0.00934916
V        7.60922651       4.39825774       4.45740682       0.00815781      -0.00846008       0.00697063
V       -5.99550538       6.09970099       5.94847039       0.00252307       0.02564954       0.05464285
V       -2.99696140       9.05370352       3.01938330       0.00562107       0.00515851      -0.00620492
V       -1.47054636      10.61462370       1.51226150       0.00657558       0.01402502      -0.00621216
V        0.16910661      12.20756553       0.11095388      -0.04731965       0.01765242      -0.04733034
V       -4.53671702       4.65953143       7.51991867       0.02189573       0.05901111      -0.02618720
V       -3.01701670       6.00317261       5.99105615      -0.01930088       0.02529623       0.01838188
V       -1.52450343       7.54538897       4.52766474      -0.00442337       0.00810358       0.00297365
V       -0.04456204       9.08824255       3.01015087       0.01179791       0.01326562      -0.02115913
V       -3.05527381       3.08441608       9.05984239      -0.00474001       0.00761448       0.00085047
V       -1.56459476       4.51364747       7.54014191      -0.01537776      -0.00061022       0.00447730
V       -0.02018763       6.01658432       6.03984529      -0.00241720       0.00973343       0.00202893
V        1.49735116       7.55653284       4.51440668       0.00314270       0.01352911      -0.00410789
V        3.00659297       9.08775362       2.98418162      -0.01576913       0.01018976      -0.01276107
V       -1.49731039       1.58220315      10.48297459      -0.00589790      -0.00038679       0.00306588
V       -0.03640867       3.03685496       9.01401620      -0.00491478      -0.00445966       0.00053443
V        2.92736376       5.97418747       6.01390740      -0.00014475       0.01168657       0.00364750
V        0.05521669       0.04019747      11.99290861      -0.00766107      -0.01908334       0.00928700
V        3.05514005       3.02294249       9.05101036       0.00357770      -0.00175422      -0.00549792
V        4.49207506       4.44002810       7.63830835       0.00847283      -0.00550109      -0.00198766
W        6.04633148       2.99602155      -0.05017256       0.00321424       0.00602421      -0.00759237
W        2.89080328       2.92109937       2.96282155      -0.01405791       0.01337738      -0.02463604
W       -0.01016885       6.02221390       3.03167028      -0.00891966       0.01195384       0.00691063
W        1.48388043       4.51449533       7.54995732      -0.00173076       0.00790511      -0.00207583
W        1.54483059       1.52341064      10.52053182       0.00420441       0.00113249      -0.01283392
Zr       9.11875085       3.08229413       0.00312468       0.00642989      -0.00789128      -0.00515539
Zr       6.02586384       5.95823022       6.05118529      -0.01144971       0.00530553      -0.01276700
