124
Lattice="-7.545998088651924 7.546311014689217 7.54745406786806 7.5469299715897655 -7.547915183884702 7.549990181031429 7.5460172019474445 7.547934301337258 -7.5490582840653" Properties=species:S:1:pos:R:3:forces:R:3 energy=-1125.8815963678417 free_energy=-1125.8815963678417 stress="0.0035655397267606065 0.000989709989756566 4.3647115863199085e-05 0.000989709989756566 0.006607043892965387 -0.0002714862087992884 4.3647115863199085e-05 -0.0002714862087992884 0.0030974160543157385" pbc="T T T"
Cr       3.08323548      -2.99415743       3.02277746       0.05320241      -0.06361437       0.02684183
Cr       3.02021123       9.02705871      -2.95501774       0.00193758      -0.01610617      -0.00771560
Cr       4.48751551       7.57397738      -1.49747044       0.00910343      -0.00477098      -0.01192189
Cr       6.05500447       2.95233443       3.05809388       0.00877200      -0.00132732       0.00926805
Cr       1.48351494       4.47135895       4.51842301      -0.00132021       0.01336074       0.02690124
Cr      -4.50388792       7.54324317       4.52005649       0.00819736      -0.00270941       0.01693732
Ti       3.04483904      -0.12964794      -0.00367099      -0.20972805      -0.16530734       0.18953074
Ti       4.58629616      -4.52183258       7.55841676      -0.01345849       0.00732351      -0.00949445
Ti       4.51075062       4.48295729       1.49705377       0.00827885       0.00766285      -0.01000425
Ti       1.55725500      10.51957521       1.52172934       0.00464773      -0.03873172      -0.00056514
Ti       4.48016792       7.55394151       4.40141416       0.01463263      -0.01446149       0.00868102
V       -0.01577554       0.04724651      -0.01611948       0.16199524      -0.10233207       0.17534723
V        1.52669780       1.47115038      -1.55402234      -0.01429250      -0.02734200       0.06856535
V        3.04381472       3.04831512      -3.00169603       0.00475355      -0.00047256       0.00759400
V        4.51516233       4.51914366      -4.50657098       0.00156765      -0.00380711       0.00757400
V        5.92861293       6.06744498      -5.98357546      -0.10792170      -0.03887402       0.00892133
V        1.44391341       1.04777705       1.62075747      -0.03366745       1.58149559      -0.10275557
V        4.51216237       1.48526179      -1.56684235      -0.03148867      -0.05443112       0.03745512
V        6.02867882       3.03129421      -3.08803063       0.00121822       0.00623524      -0.00730025
V        7.55389371       4.63335394      -4.59858779      -0.00412333      -0.02687642      -0.00358117
V        4.60642318      -1.58997793       1.56846903       0.09391456      -0.07724188       0.00787091
V        6.02820542      -0.04923719       0.01260653      -0.01299243       0.00322023      -0.00279333
V        7.50623968       1.46336711      -1.59168915      -0.01577108      -0.00735573       0.01262412
V        9.08481183       3.09724835      -3.13635762       0.00612128      -0.02405333       0.00606973
V        4.52041087      -4.49913915       4.49417877       0.00100376      -0.00221782       0.00673399
V        6.06125929      -3.03866228       3.00603994       0.00697105      -0.00320241       0.00223064
V        7.54400761      -1.50710526       1.52704751       0.01382602       0.00627150      -0.00366179
V        9.01839112      -0.02582289       0.01193172      -0.01093875       0.00359755      -0.00604192
V       10.51744617       1.42143772      -1.60205877      -0.00374171      -0.01714993       0.00661097
V        6.11858084      -5.96545159       6.00126502       0.00157880      -0.02370615       0.01243031
V        7.56222536      -4.48506599       4.51840745      -0.01570531       0.00172691       0.01205546
V        9.05741167      -2.99405802       3.06894125       0.00048753       0.00658547       0.01781222
V       10.53248295      -1.52333436       1.55507326      -0.01287087       0.00545778       0.00106884
V       11.98208203       0.07353561       0.09633508      -0.00380888       0.01393581      -0.01265024
V       -1.49642936       1.46050128       1.59050885       0.02159445      -0.01068059      -0.00326058
V        0.03588599       2.95451388       0.03951927      -0.10537452      -0.01100536      -0.06569014
V        1.52942555       4.51117107      -1.50287744       0.00679431      -0.00020413       0.01039753
V        3.01821099       6.04425585      -2.96241325       0.00449487      -0.00306042       0.00711660
V        4.46557357       7.56670040      -4.46354659       0.00877739       0.00803828       0.00518967
V       -0.13923844      -0.06625746       3.14904032       0.19200754      -0.05175094      -0.19468761
V        2.95772056       2.86870184      -0.03273526       0.06527893      -0.03448695      -0.04454094
V        4.50463757       4.51547818      -1.52011033       0.00756647      -0.01384769       0.00259942
V        5.97345725       6.06613671      -2.98565802       0.06149426       0.06090694      -0.06708455
V        1.52472021      -1.51718459       4.53510429       0.01179517      -0.06927335       0.06656996
V        3.12040983      -0.10117786       3.11139608      -0.16835450      -0.09062015      -0.17271677
V        4.56621686       1.45135313       1.55137107      -0.05712646      -0.03649618      -0.00268020
V        7.50039877       4.60591042      -1.61631118       0.01868594      -0.00064551      -0.01660334
V        3.07669974      -2.88267594       5.92771944      -0.01687495      -0.00477153       0.00284113
V        4.53658694      -1.53511511       4.51604357      -0.05796029       0.05267720      -0.05793110
V        6.04583870      -0.03737886       3.03255833      -0.02306386       0.01287132       0.00441522
V        7.48686914       1.47449285       1.60444738      -0.02540387       0.00636495      -0.00307638
V        6.10074234      -2.98639739       6.02208520      -0.00137704       0.00302426      -0.00337255
V        7.58958107      -1.50145471       4.54716929       0.00416806       0.00288592       0.00757732
V        9.05308636      -0.00776645       3.08483977      -0.00640968      -0.00187977       0.00040654
V       10.56479559       1.40181534       1.64211839       0.00446873      -0.00393248      -0.00324196
V       -3.02202501       2.99486057       3.07461132      -0.01544718       0.00317432       0.00312652
V       -1.46239782       4.50988396       1.54371613      -0.01659731       0.00417963      -0.00283822
V        0.02015993       6.02953785      -0.02015458       0.00678014      -0.02494081       0.00302652
V        1.51481298       7.56852941      -1.51640017      -0.00058863      -0.00982498       0.01005365
V       -1.56492973       1.51284358       4.60120655       0.01973451      -0.04248242      -0.01718964
V       -0.01392167       2.93933163       3.04978605      -0.05557149      -0.00905960       0.06099013
V        1.50595045       4.49937606       1.46980781      -0.00304636      -0.18602520      -0.01075483
V        3.01177733       6.08491250      -0.06077314      -0.01594686      -0.01408813       0.00543489
V       -0.00226249       0.02720779       6.05460168      -0.00363001      -0.00555408      -0.01655884
V        1.47406798       1.43792649       4.56032250      -0.00693956      -0.01537210       0.01096782
V        6.01395622       6.11379125      -0.05577388      -0.01084961       0.00066928      -0.01441260
V        1.51379080      -1.44733391       7.54955090       0.00490967       0.00559313       0.01165300
V        3.01519742       0.01526460       6.03650891       0.01222898      -0.00013738      -0.02891171
V        4.56460090       1.50152641       4.54448246      -0.01435799      -0.04880504      -0.01288026
V        7.46078397       4.56091048       1.56295372      -0.01086324       0.00183718      -0.00576475
V        3.11248600      -2.87949024       9.20470250       0.00998434       0.00736944      -0.01286010
V        4.56612609      -1.49360257       7.56204545       0.00551782       0.01245736      -0.01117622
V        6.05890575      -0.00366503       6.05799207      -0.00111056       0.00902912      -0.00256346
V        7.52647154       1.51472701       4.54409697      -0.00270531      -0.00250752      -0.00097132
V        9.10157778       2.97625671       3.10115202       0.00007907      -0.01490443      -0.01333936
V       -4.51861865       4.49309596       4.53695997       0.00894741      -0.02024164      -0.02319270
V       -3.03304018       6.06442678       3.04327780       0.00949274       0.00010276      -0.00206413
V       -1.50551900       7.56823700       1.48135576       0.01432573      -0.01107817      -0.00047768
V       -0.01735762       9.03688273      -0.03985180      -0.00245618      -0.01801692      -0.00251656
V        1.54096582      10.57106718      -1.51084840      -0.01304236      -0.00777154      -0.00777858
V       -3.05029558       3.00411603       6.02988177       0.01036813      -0.00669649      -0.00651638
V       -1.54569155       4.48424004       4.55576799       0.01745975      -0.01166033      -0.00200340
V        1.50020565       7.55753674       1.45796505      -0.00113527      -0.03910798      -0.00567345
V        3.07971215       9.01085509      -0.05506889      -0.00156698      -0.02230391      -0.00640493
V       -1.55430154       1.50799912       7.52794966       0.00369661      -0.01460940       0.00415874
V       -0.01815246       3.01570070       6.01157570      -0.00503453      -0.00539620       0.01837276
V        2.92644823       5.96177615       3.01134040      -0.01857953      -0.00921750      -0.01178054
V        4.51139426       7.53434745       1.49917119      -0.00720819      -0.02779587      -0.00303626
V       -0.00593829       0.01111526       8.99484095      -0.00270480      -0.00141553      -0.00088069
V        1.50382662       1.48659546       7.51143874      -0.00067489       0.00058825      -0.00449534
V        3.01231605       2.99615362       6.02382976       0.01043185      -0.00177872       0.03434831
V        4.50830946       4.40037994       4.44064693       0.01195250       0.00264248       0.01858777
V        6.11621308       6.02489831       2.93189885       0.00212242       0.00267993      -0.01342798
V        1.53943449      -1.50630269      10.55185878      -0.00509802       0.00678086      -0.02079404
V        3.06086215      -0.00041536       9.01020181       0.00086017      -0.00049474      -0.00547047
V        4.55530231       1.50685399       7.54769889       0.00144228      -0.00062042      -0.00206592
V        6.04631940       2.95530203       6.06686501      -0.00241599       0.00427864       0.00152240
V        7.60098948       4.39343323       4.44647080      -0.01089397      -0.01446566      -0.01175250
V       -5.98333544       6.05803803       5.85719323       0.03362966      -0.05923532      -0.11298003
V       -2.99911800       9.04615725       3.02744107      -0.00466764      -0.01288287       0.01230621
V       -1.46927395      10.60767607       1.51747858       0.00801897      -0.00744479      -0.00552082
V        0.23528743      12.22142699       0.15698125       0.07734857       0.04055190       0.04613659
V       -4.53482807       4.59451814       7.52407756       0.02886594      -0.04274811      -0.02366230
V       -3.02198487       6.00276104       5.99552476      -0.03481293       0.01666294       0.03319046
V       -1.52837761       7.54143467       4.53061718      -0.00970859      -0.00027420       0.00772131
V       -0.05478209       9.08018188       3.01702140      -0.01353803      -0.01838379      -0.00186309
V       -3.04852117       3.05821721       9.06416096       0.01623084      -0.04417316       0.00660367
V       -1.55591951       4.50765791       7.54165963       0.00154628      -0.00804886       0.00363214
V       -0.02227231       6.01384740       6.03806300      -0.00157331       0.01181193      -0.00357329
V        1.49375550       7.53946652       4.51489098      -0.00158630      -0.02006759      -0.00779783
V        3.01238326       9.06884368       2.99381277      -0.00339270      -0.03513013       0.00585534
V       -1.49174448       1.57242269      10.48659012       0.01074701      -0.01841350       0.00268046
V       -0.02771906       3.02945283       9.01810377       0.00974063      -0.01353546       0.00797298
V        2.93035976       5.96705346       6.01399899       0.00388708       0.01115490      -0.00397699
V        0.05362990       0.06833781      11.99518042      -0.00715112       0.01876660       0.00859711
V        3.05255914       3.01555139       9.05930686      -0.00162587      -0.00878924       0.01245932
V        4.48738945       4.43876717       7.64083403      -0.00742711      -0.00662763       0.00013691
W        6.03498010       2.98202439      -0.05310115      -0.01924481      -0.01211487      -0.00496681
W        2.93283295       2.89804920       3.01549271       0.08177470      -0.01177556       0.09209891
W       -0.00286316       6.00012506       3.02452679       0.01356161      -0.02186799      -0.01306959
W        1.48433234       4.51047890       7.55194251       0.00178133       0.00778037       0.00115244
W        1.54780278       1.52188615      10.53773979       0.00505406      -0.00267329       0.01588232
Zr       9.11100304       3.07698622       0.01019311      -0.00918722      -0.02058495       0.01229194
Zr       6.06278186       5.97447031       6.08581081       0.04429848       0.02813736       0.04413689
