124
Lattice="-7.32060916410201 7.319337295524605 7.321789780937772 7.317974618296534 -7.320027788227948 7.31984589126559 7.32234188632238 7.321760647421058 -7.322480236857273" Properties=species:S:1:pos:R:3:energies:R:1:forces:R:3 energy=-1098.175839803103 free_energy=-1098.175839803103 stress="-0.010850709801144469 -0.0006473389663410492 0.0006692056164760272 -0.0006473389663410492 -0.00891512489203465 -0.0010882034012739473 0.0006692056164760272 -0.0010882034012739473 -0.008983062929837603" pbc="T T T"
Cr       1.45438007       1.46606590      -1.47544512      -7.32152638      -0.00069388       0.00794478       0.00381365
Cr       0.00835739       2.88879819       2.90219464      -7.41028261       0.00693793       0.01647815       0.01336998
Cr      -1.47570766       4.38216003       4.41355664      -7.36420134       0.01646797       0.00456201       0.00923192
Cr       2.93258502       8.80044461       2.92988868      -7.30820131      -0.01259308      -0.01965864      -0.00334299
Ti       5.86619629      -2.91376905       2.93307929      -7.98251786      -0.00036746       0.01718941      -0.01022088
Ti       8.78062475       0.01176201       0.01441607      -7.91358425      -0.00820875      -0.01032207      -0.03162997
Ti       2.94014991       5.86528589      -2.92355077      -7.93112213      -0.00986208       0.01491843      -0.01855194
Ti       7.36346677       1.45552297       1.43660526      -7.90960506      -0.12607819       0.11556293       0.07351632
Ti       0.01160584       5.87046722      -0.03233729      -7.95555727      -0.00696346       0.02844447      -0.01748319
Ti       5.86500247       2.87070668       2.78410265      -7.86706133      -0.22927777       0.41118933       0.50459082
Ti       2.94555813      -2.92916678       8.76579585      -7.95512519      -0.02845840      -0.00071984       0.00035442
Ti      -0.01135004       5.85535305       2.89777734      -8.33624259       0.00989741       0.01119384      -0.00112980
Ti      -0.00188510       2.89275457       5.87365706      -8.30880159       0.03213722       0.01718137      -0.00338213
Ti       1.37911640       4.38277915       4.41416638      -8.37146224       0.20232504       0.01508358       0.00659869
Ti      -4.39733877       4.39473982       7.32491003      -8.49379899      -0.03970317      -0.00213979      -0.03278159
Ti       0.00478981       8.81560530       2.91146898      -8.10490069      -0.01613654       0.02052812      -0.03104395
V        0.00744286       0.01722467       0.00316479      -9.08691431      -0.02947966      -0.01269138      -0.02530120
V        2.92793627       2.93867624      -2.93284797      -9.02951278      -0.00025144       0.00802452      -0.01818192
V        4.39319755       4.39995154      -4.39100294      -8.93691753       0.00385466       0.00559318      -0.03865643
V        5.86445302       5.85843068      -5.86467884      -8.96667727      -0.02206680       0.03736365      -0.02937436
V        1.45887351      -1.45654856       1.45789967      -9.03936799      -0.00435454       0.01710580      -0.01315205
V        2.91786802       0.01338601       0.00233210      -9.01737526       0.00043167       0.00024490      -0.01393615
V        4.39649205       1.46858872      -1.47950050      -9.13912267       0.00141327      -0.00214242      -0.00189717
V        5.85702646       2.96394531      -2.93951475      -8.94231555      -0.00531497      -0.00061243      -0.02541244
V        7.32790641       4.39809872      -4.41181067      -8.97151015      -0.02544202      -0.00513542      -0.03001531
V        2.92931199      -2.91249095       2.92408950      -9.05149707      -0.00610451       0.00204181      -0.01199669
V        4.38935682      -1.46260288       1.47084787      -8.94439092      -0.00445879       0.01486942      -0.01157427
V        5.85975165       0.00320354       0.01907940      -9.02084022       0.00560321       0.02056774       0.01358377
V        7.30375246       1.47597304      -1.49711629      -9.04129698      -0.00830612      -0.00279173       0.02160815
V        8.78936481       2.96772090      -2.92046178      -9.05215724      -0.00484009      -0.00156888      -0.00344850
V        4.40899896      -4.36281957       4.39546255      -9.03350382      -0.00350700       0.00805240       0.00568260
V        7.31830035      -1.45750758       1.48710938      -8.94804867       0.00596054       0.03328429      -0.01867623
V       10.26008239       1.49870070      -1.46596899      -9.11922567      -0.02024278      -0.05976566       0.02388871
V        5.85746314      -5.84821599       5.84665752      -9.11638024      -0.01490580      -0.00687813       0.00455464
V        7.32673812      -4.37909511       4.38922105      -9.05809467      -0.00384294       0.02040017      -0.00081853
V        8.79254540      -2.91777772       2.93467117      -8.98464032       0.00510612       0.01121358      -0.01968424
V       10.26343739      -1.46397976       1.49855098      -8.92841723      -0.02321563       0.04080882      -0.08466905
V       11.72241613       0.03456493       0.03291538      -8.88417381      -0.05821761      -0.06348529      -0.07250619
V       -1.44839854       1.46304365       1.46725863      -9.13696116      -0.02144500      -0.00580342      -0.00939230
V        0.00485982       2.92883277      -0.02626853      -9.16706761      -0.01777284       0.00135074      -0.00511771
V        1.47863247       4.40464768      -1.48094270      -9.07778205      -0.00202548       0.01128445      -0.01362488
V        4.40843027       7.31582845      -4.38202702      -9.00155110      -0.01773102       0.00904564      -0.02281410
V        0.00287256      -0.02346794       2.92012157      -9.06304853      -0.01998834      -0.00161160      -0.01472182
V        1.46485406       1.45921831       1.46804704      -9.17615146      -0.01039880      -0.00826899      -0.02317215
V        2.93473571       2.93861136      -0.01141974      -9.13561850       0.00550562      -0.00400478      -0.00385011
V        4.39295866       4.40518087      -1.48228353      -8.96102259       0.00381276       0.00089767      -0.02055485
V        5.86220524       5.85566382      -2.93715232      -8.91734588      -0.00945632       0.00817180      -0.01606812
V        1.47050254      -1.46107378       4.38963184      -8.93060658      -0.00080023       0.00362281      -0.00806200
V        2.92726408      -0.00938960       2.92740485      -9.02537427       0.00173383       0.01697147      -0.02225572
V        4.38742415       1.45377855       1.43564732      -8.94387792       0.05598823       0.09851518       0.04691813
V        5.86870185       2.94687656      -0.01575366      -8.97748072      -0.00620638      -0.01392415       0.07844304
V        7.33587941       4.40343946      -1.48059217      -8.96031181      -0.00898011      -0.00200693      -0.02382968
V        2.93669055      -2.91311549       5.85272735      -8.98105092      -0.00241988       0.00295323      -0.00422570
V        4.39576806      -1.45883127       4.38893417      -8.94649306       0.00684981       0.02245266      -0.00170821
V        5.86928471      -0.00812573       2.92149107      -8.93526326      -0.00944464       0.06795489      -0.05824012
V        8.79309015       2.94521136      -0.00342477      -8.95638751      -0.01846925      -0.02488102       0.00655163
V        4.40136301      -4.37446632       7.31573152      -9.01427755      -0.01450948      -0.00769789       0.00095894
V        5.86080552      -2.91532390       5.84247657      -8.97240327      -0.00775192       0.01977761      -0.00213349
V        7.33326241      -1.45463631       4.39493521      -8.91706619      -0.01981577       0.01792794      -0.00284104
V        8.80350044       0.00023953       2.92887114      -9.02812525      -0.02326291       0.03278274      -0.04314007
V       10.26844178       1.47620254       1.47087480      -8.92154309      -0.04405188      -0.00686791      -0.02130793
V       -2.91681758       2.92363517       2.91961003      -9.25184945      -0.03124332       0.00069972      -0.00261181
V       -1.45850551       4.38611875       1.43374781      -9.18381576      -0.01503441       0.00506782       0.00492553
V        1.47587384       7.32551917      -1.48255138      -9.20946609       0.00054533       0.01812241      -0.01833064
V        2.95287454       8.77916663      -2.92375523      -9.45076523      -0.04963524       0.03186777      -0.01159614
V       -1.45582967       1.45706370       4.38723710      -9.19948038      -0.01524257       0.01404575      -0.00149940
V        1.45452612       4.37734803       1.44402383      -9.12865929      -0.00284477       0.02197845      -0.02262527
V        2.94339811       5.86379688      -0.01372535      -8.98570864      -0.00824678       0.01849812       0.01297455
V        4.39797826       7.31975872      -1.47167681      -8.99838604      -0.02252662       0.01626983      -0.00940587
V        0.00938630      -0.00084784       5.85298161      -8.95010626       0.00539165       0.01767479      -0.00417566
V        1.44808722       1.45448371       4.38203621      -9.10674974       0.00077802       0.01187576       0.00792956
V        2.93735031       2.93668112       2.91721330      -9.04267974      -0.12551195       0.03520272      -0.06430213
V        4.42598468       4.42955702       1.47631456      -8.74695253       0.03275605      -0.01142816      -0.01975197
V        5.86459588       5.85648360      -0.05675949      -8.77155693       0.00043819       0.01093188      -0.02182987
V        1.47143058      -1.46390404       7.31581109      -8.93313419       0.00323815       0.01542028      -0.01889929
V        2.93443808       0.00346373       5.84951973      -8.97571752      -0.01198980       0.04430116      -0.01780217
V        4.37138502       1.45224096       4.35895306      -8.88229607      -0.08153941       0.07858226      -0.13191429
V        7.30948649       4.44060728       1.47585064      -8.73155356      -0.02657927      -0.05394234      -0.06075707
V        4.39934083      -1.45332636       7.30611637      -8.91081030      -0.00107735       0.03215910      -0.02278509
V        5.85375507       0.01581877       5.82385942      -8.93798041      -0.03102901       0.16054222      -0.04117373
V        7.33635118       1.49398825       4.35970695      -9.37724281       0.05323974      -0.06050853      -0.14803279
V        8.81864027       2.92116533       2.89398141      -9.22373278      -0.09844500       0.06777539      -0.00009880
V       -4.35779147       4.37507900       4.39342476      -9.50270162      -0.10753326       0.01160989      -0.01718143
V       -2.90993214       5.87613650       2.91730168      -9.19610064      -0.02361622       0.01104678      -0.01010263
V       -1.46159462       7.34468817       1.41042328      -9.02373435      -0.00596430       0.00621385      -0.01495835
V       -0.01436854       8.81972416      -0.05883626      -9.37444241       0.00875967       0.03347285      -0.04560308
V       -2.91626952       2.91551687       5.86635824      -9.33232960      -0.04909406       0.00069244      -0.00886820
V        1.45132014       7.32462083       1.41331866      -9.12096943       0.00979672       0.00978844      -0.00122395
V        2.93669745       8.78805925      -0.00802082      -9.53663479      -0.03381825       0.01797946      -0.01912995
V       -1.46470531       1.45415583       7.32475858      -9.05657613      -0.00497787       0.00320923      -0.00156652
V        2.80903951       5.90963735       2.89291456      -8.88742535       0.04188811      -0.09684145       0.19101023
V        4.45847032       7.28728199       1.49216008      -8.84405052      -0.01219820      -0.03509182       0.03881185
V       -0.02283289      -0.03671628       8.80776281      -8.78908714      -0.01651301      -0.02188356       0.01675791
V        1.45179316       1.45774706       7.32068693      -8.93443347       0.01935521       0.04269899      -0.02504696
V        2.87042308       2.92832867       5.87673520      -8.99165892       0.07853319       0.18637900      -0.13276681
V        4.11945792       4.61343360       4.36514505      -8.49645611       1.33652308      -0.47363435      -0.56951085
V        5.71822125       3.24053169       5.37525983      -8.81456184       0.57125684      -1.47248148       2.35815517
V        1.56553221      -1.45414498      10.21777879      -8.83850751      -0.05383222      -0.01227181       0.00835507
V        2.94369794       0.01973442       8.75414192      -8.90885916      -0.01681033       0.00888844      -0.01386856
V        4.41438419       1.51343363       7.26577295      -8.94511118      -0.08833830       0.01214785      -0.03309210
V        7.42397847       4.47175536       4.28382338      -9.04853126      -0.50019985       0.11572765      -0.12675008
V       -5.85373324       5.87393543       5.84889351      -9.31528806      -0.04941664      -0.01241496      -0.06027073
V       -4.39739913       7.33794351       4.38557542      -9.06872129      -0.01396019       0.00302951      -0.01103908
V       -2.90208818       8.78584760       2.93149393      -9.02046397       0.00698163       0.02703312      -0.04672244
V       -1.46817838      10.27612533       1.44743526      -8.87129010      -0.03953237       0.04471317      -0.20277242
V       -0.01682154      11.71104048      -0.06059807      -9.34835983       0.07199358       0.11284439       0.05118398
V       -2.92925967       5.88140942       5.85891900      -9.22055273      -0.01624466       0.00254656      -0.00572719
V        1.44882063      10.27728085       1.43296705      -9.29501528       0.00568240       0.00730520      -0.03151088
V       -2.91863965       2.94253866       8.78175383      -9.10147774      -0.01382819      -0.00322969      -0.01386555
V       -1.46836046       4.38439229       7.34155484      -9.09282737       0.00495038       0.00309183      -0.01413597
V       -0.03090465       5.87644222       5.87798282      -9.20387096       0.07030342       0.00574567       0.00627559
V        1.44912818       7.32789651       4.41967886      -9.07376003       0.00756869       0.02012312       0.03578706
V       -1.46031421       1.52122157      10.24355325      -8.87916865      -0.00863991       0.01286042       0.00007137
V        0.00413926       2.93156694       8.78432370      -8.88452889       0.00413340       0.00465568      -0.00976287
V        1.43496594       4.38901934       7.34857321      -8.97861076       0.03647616       0.05406664      -0.04881032
V        2.84780469       5.93284032       5.94004131      -8.93708309       0.20559707      -0.26863263      -0.36562603
V        4.42666257       7.34539701       4.37865397      -8.87519333      -0.03928282      -0.02377543       0.00211038
V       -0.04550817      -0.03664571      11.66200978      -8.86111951       0.01122980       0.06779317       0.02317775
V        1.46157968       1.46258091      10.23889535      -9.06401102       0.00486053       0.02225143      -0.02364448
V        2.94483612       2.92745615       8.78441408      -8.98129087      -0.01945608       0.02371238      -0.04886222
V        4.38418148       4.40382224       7.31780796      -8.96305185      -0.12221005       0.12544825      -0.03358448
V        5.83968264       5.90592352       5.90014603      -8.87703741      -0.01449446      -0.05336573      -0.06125232
W        1.48800221      10.25662385      -1.50223020      -6.63988963      -0.21949328       0.06057286      -0.07880508
Zr      -1.48589989       7.31481310       4.41003455      -7.98923080       0.00152144      -0.00973895       0.00838932
