124
Lattice="-7.32060916410201 7.319337295524605 7.321789780937772 7.317974618296534 -7.320027788227948 7.31984589126559 7.32234188632238 7.321760647421058 -7.322480236857273" Properties=species:S:1:pos:R:3:energies:R:1:forces:R:3 energy=-1093.513967783792 free_energy=-1093.513967783792 stress="-0.026764459213805835 0.0010810652973326947 0.0012788403557851503 0.0010810652973326947 -0.021481025198054015 -0.0013222560085292675 0.0012788403557851503 -0.0013222560085292675 -0.0222003102909334" pbc="T T T"
Cr       1.45257967       1.46298676      -1.47783688      -7.31251708      -0.00333080      -0.00100290      -0.00079734
Cr       0.00517165       2.88148044       2.89603205      -7.39523671       0.00129739      -0.00846777      -0.00742869
Cr      -1.48066260       4.37959745       4.40784111      -7.35516618       0.00095576      -0.00517454      -0.00700404
Cr       2.94021783       8.80157510       2.93289811      -7.30864169       0.00469023       0.00101323       0.00352613
Ti       5.86644085      -2.92347350       2.93973792      -7.97956766       0.00014270      -0.00202416       0.00237081
Ti       8.78188289       0.02133319       0.02882835      -7.79943321      -0.00055269       0.00357988       0.00442961
Ti       2.94278230       5.86020653      -2.91721847      -7.93037502      -0.00236640      -0.00066549      -0.00040259
Ti       7.41813967       1.40522016       1.39933238      -7.73103374       0.01743992      -0.01633477      -0.01727459
Ti       0.01688260       5.86099988      -0.02653534      -7.94476655       0.00285269      -0.00557646      -0.00394093
Ti       5.96718746       2.64830303       2.62419313      -7.31668846       0.01644409      -0.01346631      -0.01330162
Ti       2.95136225      -2.92512504       8.76683000      -7.94252072      -0.00492082      -0.00052080      -0.00246170
Ti      -0.01106474       5.85679867       2.89136136      -8.32185207      -0.00271111      -0.00449178      -0.00936702
Ti      -0.01271731       2.88618937       5.87420818      -8.30719160      -0.00219497      -0.00967475      -0.00136543
Ti       1.30723788       4.37882906       4.40304417      -8.33060237      -0.01748924       0.00011929       0.00133802
Ti      -4.38615272       4.39463897       7.33979999      -8.47297373       0.00134163      -0.00042586       0.00779623
Ti       0.01347355       8.80648481       2.92323927      -8.08083962       0.00133424       0.00089433       0.00189645
V        0.01516005       0.02004536       0.01391797      -9.07454292      -0.00336891      -0.00306815      -0.00292933
V        2.92722245       2.93479826      -2.92722607      -9.03191893      -0.00025231       0.00232433       0.00041064
V        4.39308268       4.39795268      -4.37442366      -8.92750410       0.00382447       0.00226896      -0.00218212
V        5.87253954       5.84832627      -5.85148304      -8.97116444       0.00297596      -0.00108735      -0.00023368
V        1.45800580      -1.46368464       1.46382285      -9.04390073      -0.00557975       0.00080000      -0.00002765
V        2.91599523       0.01117096       0.00634018      -9.00884120      -0.00424805       0.00377225       0.00338709
V        4.39787889       1.46794423      -1.47886313      -9.14632477       0.00358374       0.00445480       0.00219434
V        5.85941690       2.96222895      -2.93287955      -8.95771986       0.00155815       0.00329778      -0.00219884
V        7.33655800       4.39810061      -4.39981513      -8.95652721      -0.00091242      -0.00007938      -0.00146364
V        2.93286901      -2.91343157       2.92947357      -9.05137856      -0.00094716       0.00020780       0.00121211
V        4.39192005      -1.47036117       1.47767008      -8.95300319       0.00320669       0.00062448       0.00556421
V        5.85616900      -0.00505338       0.01627610      -8.98726871      -0.00494971       0.00529144       0.00536818
V        7.30492912       1.47865046      -1.50330449      -9.05231048       0.00101807       0.00102015      -0.00734285
V        8.79102730       2.96758057      -2.91769783      -9.04876525       0.00033290       0.00181190      -0.00111746
V        4.41175192      -4.36774921       4.39648051      -9.02340375       0.00463217      -0.00159443       0.00230668
V        7.31932362      -1.47476252       1.49402582      -8.95688719       0.00158869      -0.01213677      -0.00052475
V       10.27030365       1.52493897      -1.47386683      -9.13289788       0.00499754       0.00842411      -0.00199436
V        5.86308090      -5.84805364       5.84567364      -9.12343763       0.00360350       0.00136876      -0.00084222
V        7.32873636      -4.38748179       4.39133019      -9.04071137       0.00124229      -0.00103885       0.00106650
V        8.79044340      -2.92163229       2.94360919      -8.98068061       0.00128127      -0.00072185       0.00153138
V       10.27556132      -1.47784062       1.53393669      -8.94226492       0.00429186      -0.00286496       0.00819539
V       11.74732631       0.06137601       0.06646536      -8.84460547       0.00359223       0.00895085       0.00832316
V       -1.44017685       1.46493096       1.47239380      -9.12496318       0.00431812       0.00125941       0.00176017
V        0.01160200       2.92752836      -0.02412141      -9.17169958       0.00371206      -0.00359035       0.00015763
V        1.47892096       4.40042144      -1.47760328      -9.07372471       0.00199534      -0.00179681      -0.00113903
V        4.41375042       7.31374179      -4.37104805      -9.00274436       0.00134698       0.00059723       0.00081293
V        0.01122045      -0.02499092       2.92661171      -9.06379353       0.00348167      -0.00027080      -0.00318480
V        1.46924012       1.46010509       1.47384383      -9.18659654       0.00498748       0.00463031       0.00516708
V        2.93223068       2.93757327      -0.01289017      -9.13049319       0.00025218       0.00241868       0.00251392
V        4.39247840       4.40323538      -1.47672711      -8.95869667       0.00044735       0.00102058      -0.00224114
V        5.86632324       5.85126021      -2.93040856      -8.91465522       0.00212929       0.00056710      -0.00158956
V        1.47209058      -1.46464025       4.39279408      -8.92877116       0.00034671      -0.00079421      -0.00230259
V        2.93116070      -0.01042610       2.93815246      -9.03105736      -0.00027475       0.00352971       0.00345893
V        4.35624361       1.41618874       1.41636000      -8.89101787      -0.01457336       0.00090356       0.00317257
V        5.86919979       2.95291195      -0.04051640      -8.99238861      -0.00425841      -0.00027188       0.00012801
V        7.33731548       4.40263456      -1.47244727      -8.94493961      -0.00332067      -0.00066690      -0.00091489
V        2.93707744      -2.91459623       5.85614560      -8.98732246      -0.00169615      -0.00169725      -0.00098425
V        4.39396366      -1.46423470       4.39056292      -8.92853110       0.00044195      -0.00202664       0.00046482
V        5.86836030      -0.04065944       2.94609490      -8.95720034      -0.00472651      -0.00067550       0.00009448
V        8.79667627       2.95825158      -0.00460413      -8.95011897      -0.00316755       0.00272588      -0.00440865
V        4.40645251      -4.37113254       7.31775092      -9.01896863       0.00116210       0.00154878       0.00067756
V        5.86378783      -2.92274506       5.84314329      -8.98291733       0.00192730      -0.00186583      -0.00048143
V        7.33721102      -1.46163358       4.39717751      -8.89657044      -0.00352974      -0.00172904      -0.00170393
V        8.80770105      -0.01010299       2.94735131      -9.02400620      -0.00325362      -0.00482298       0.00230831
V       10.28260142       1.48177476       1.48192122      -8.90869252       0.00285227       0.00587852       0.00498025
V       -2.90664642       2.92466735       2.92162323      -9.25472652      -0.00111506      -0.00029601      -0.00040301
V       -1.45277773       4.38360021       1.43303007      -9.17806668      -0.00017810      -0.00389410      -0.00350579
V        1.46852308       7.32294345      -1.48041366      -9.22895800      -0.00484122      -0.00537873      -0.00517435
V        2.96784675       8.76718763      -2.91909264      -9.44189276      -0.00259687      -0.00475695      -0.00078218
V       -1.45055432       1.45232801       4.39044233      -9.19720786       0.00229522      -0.00416806      -0.00428330
V        1.46270535       4.37660988       1.45180763      -9.13884825       0.00956866      -0.00522052       0.00052066
V        2.94388222       5.86027732      -0.02173125      -8.99528997       0.00647476      -0.00735115      -0.00291595
V        4.40561550       7.31169211      -1.46850924      -9.01057812       0.00063190      -0.00425721      -0.00466310
V        0.00836727      -0.01038336       5.85535384      -8.95112853       0.00233793      -0.00369355      -0.00447596
V        1.45156780       1.44726317       4.37678441      -9.08686373       0.00844439       0.00088394      -0.00390818
V        2.98465504       2.93134676       2.93665666      -9.19093804       0.01868816       0.01678641       0.01745648
V        4.42038852       4.41744583       1.47959750      -8.83870900       0.00591612      -0.00819822       0.02579010
V        5.86491940       5.84814665      -0.04965488      -8.76945999      -0.00429840      -0.00696276       0.00412993
V        1.46681705      -1.47231179       7.32491498      -8.94095785      -0.00607672      -0.00494793      -0.00313979
V        2.94581907      -0.01649264       5.84931478      -8.99704027       0.00496605      -0.00203655      -0.00789686
V        4.42637112       1.48274947       4.41304131      -8.84595938       0.00854515       0.03802022      -0.00876292
V        7.29689504       4.46513240       1.53181368      -8.84941530      -0.00164297      -0.00047058      -0.00149696
V        4.39926419      -1.46530815       7.31240490      -8.90936833      -0.00042334      -0.00514513      -0.00340634
V        5.86121912      -0.02791836       5.83974392      -8.82277922      -0.00658614       0.00492997      -0.00800466
V        7.30892804       1.52577333       4.43651151      -9.28683495      -0.00022045      -0.00104236       0.00449087
V        8.85141989       2.90017087       2.89764733      -9.18907281      -0.01041010       0.00300122       0.00508350
V       -4.31918157       4.37399736       4.39654272      -9.50495917       0.00103967      -0.00030530       0.00195594
V       -2.90497700       5.87250068       2.92046986      -9.19633416       0.00092747       0.00016698      -0.00206635
V       -1.45621700       7.34086924       1.41692480      -9.02268981       0.00227974      -0.00195402      -0.00102560
V       -0.01203377       8.80430905      -0.03809802      -9.19990366       0.00588585      -0.00604507       0.00485070
V       -2.89696818       2.91469400       5.86913211      -9.37628800       0.00270105      -0.00230301      -0.00054054
V        1.45526029       7.31948896       1.41328934      -9.12705940       0.00122839       0.00116482      -0.00682068
V        2.94645131       8.78006388      -0.00053933      -9.56298336       0.00337145      -0.00570856       0.00007260
V       -1.46095147       1.45413193       7.32484385      -9.05160877       0.00294803       0.00057864      -0.00492356
V        2.84028648       5.91814227       2.83689433      -8.82757269       0.00054521       0.01037933      -0.01216735
V        4.46358971       7.29928516       1.47096885      -8.82305711       0.00710081       0.00501342      -0.01037186
V       -0.01370817      -0.02372360       8.79290908      -8.78436149       0.00505181       0.00529490      -0.00887600
V        1.44654472       1.43953972       7.32977699      -8.90302269      -0.00017372      -0.00827156       0.00083003
V        2.83726192       2.81488196       5.93730121      -8.67676745       0.00311351      -0.01009069       0.01186092
V        3.60652310       4.69583827       4.73678973      -7.62947816      -0.04217645       0.02242266       0.01305880
V        5.46450244       4.09190659       4.11848183      -7.83958319      -0.01639368      -0.00325613       0.01636585
V        1.57814220      -1.45021451      10.21284514      -8.82007447       0.00402459       0.00375633      -0.00234911
V        2.94614127       0.01155771       8.76150030      -8.90463313       0.00238483      -0.00044288      -0.00479125
V        4.44326814       1.48208712       7.30037004      -8.74627104       0.00678075      -0.01039749       0.00575290
V        7.60775670       4.37508449       4.38835964      -8.81542166       0.00488914       0.00438524       0.00358621
V       -5.83776268       5.87668470       5.86978662      -9.27905401       0.00493883       0.00359365       0.00245855
V       -4.39366696       7.33760704       4.38664570      -9.06104965       0.00219245       0.00926552      -0.00005949
V       -2.90418054       8.77782386       2.94621513      -9.02135194       0.00033852       0.00454018      -0.00273831
V       -1.45336331      10.25763563       1.50472445      -8.79931318       0.00252256       0.00094966      -0.00172888
V       -0.03044256      11.67160603      -0.06159952      -9.18319009      -0.00573502      -0.00343120      -0.01302796
V       -2.92465120       5.87995661       5.86067263      -9.22829143      -0.00005657       0.00397188       0.00267827
V        1.44731009      10.27558341       1.44613176      -9.31486418      -0.00253118       0.00024821       0.00402596
V       -2.91174816       2.94157283       8.78858321      -9.11417698       0.00279836      -0.00155538       0.00379293
V       -1.46971979       4.37992187       7.34793769      -9.08928882      -0.00199607      -0.00063922       0.00111389
V       -0.06260635       5.87604887       5.87912382      -9.20101975      -0.01194344       0.00008755       0.00038995
V        1.44424958       7.31920797       4.39893002      -9.09757376      -0.00231004      -0.00947037      -0.00264901
V       -1.45744048       1.51544639      10.24658252      -8.88643679       0.00360616      -0.00102075      -0.00061265
V        0.00646128       2.93266369       8.78722083      -8.88808984       0.00392789       0.00194428       0.00151198
V        1.42968194       4.36926338       7.35130998      -8.98884217      -0.00163533      -0.00478265      -0.00879403
V        2.75875805       6.06271395       6.08611103      -8.51004887      -0.01282774       0.02256394       0.02696340
V        4.44309188       7.31824693       4.37730660      -8.95241677      -0.00559862       0.00154430       0.00498927
V       -0.05815657      -0.08507093      11.64885394      -8.89583122      -0.00855733      -0.01099416      -0.00337395
V        1.45882183       1.45612504      10.24712670      -9.06833017      -0.00010037       0.00388548       0.00046501
V        2.95275510       2.92505140       8.80780402      -8.99094115       0.00270991       0.00430056      -0.00101616
V        4.43496267       4.35906359       7.34112038      -8.85118642      -0.00509312       0.00491980      -0.00054540
V        5.84537149       5.91346059       5.93483734      -8.81991097      -0.01412597       0.00369211       0.00188810
W        1.57760893      10.22266224      -1.45665391      -6.50966104       0.00138259      -0.00076344       0.00241047
Zr      -1.48639271       7.31810293       4.40831961      -7.97159844      -0.00191775       0.00228198      -0.00065826
