124
Lattice="-7.32060916410201 7.319337295524605 7.321789780937772 7.317974618296534 -7.320027788227948 7.31984589126559 7.32234188632238 7.321760647421058 -7.322480236857273" Properties=species:S:1:pos:R:3:energies:R:1:forces:R:3 energy=-1095.0229656306224 free_energy=-1095.0229656306224 stress="-0.02102719701355041 0.0009516374274272821 0.0003180828514886503 0.0009516374274272821 -0.01706690035697818 -0.0008546463770059424 0.0003180828514886503 -0.0008546463770059424 -0.019316075056180576" pbc="T T T"
Cr       1.45394325       1.46179013      -1.47311734      -7.31984971       0.00284717      -0.00521314       0.01563066
Cr       0.00644824       2.88517106       2.89851996      -7.39905959       0.00165081       0.00854769       0.00213201
Cr      -1.47924782       4.38196223       4.40742818      -7.35886508       0.00589502       0.00661626      -0.00695470
Cr       2.93866898       8.78960712       2.93431674      -7.31455802       0.00134799      -0.04129746       0.00987260
Ti       5.86563130      -2.92574474       2.93926124      -7.97984033      -0.00097470      -0.01018622      -0.00048005
Ti       8.78373712       0.01588850       0.01994379      -7.86316801       0.00374012      -0.01426153      -0.02601250
Ti       2.94257241       5.85946740      -2.91770312      -7.92825505      -0.00303207       0.00047071      -0.00569876
Ti       7.39160810       1.42592652       1.41984531      -7.82594679      -0.08371376       0.06091413       0.05969355
Ti       0.01801912       5.85940367      -0.02080558      -7.94396740       0.01033054      -0.01015047       0.01778107
Ti       5.92004005       2.67110863       2.75136811      -7.61137886      -0.17014342       0.07819902       0.45395365
Ti       2.94476191      -2.92628681       8.77114579      -7.95863877      -0.02548883      -0.00548499       0.01066389
Ti      -0.00534224       5.85752713       2.89428523      -8.31879520       0.02276234      -0.00219971       0.00702137
Ti      -0.01573817       2.89157601       5.86894951      -8.31868069      -0.00856573       0.01173728      -0.01660481
Ti       1.32939260       4.38921396       4.40255539      -8.34023028       0.05340638       0.03217896      -0.00590000
Ti      -4.38482410       4.39429423       7.33945776      -8.47500766       0.00781876      -0.00337370       0.00619228
Ti       0.01309435       8.80583874       2.92154818      -8.07631874       0.00328439      -0.00051108      -0.00165433
V        0.01117050       0.01565083       0.01257331      -9.08173605      -0.01589012      -0.02007378      -0.00619600
V        2.92560968       2.93245754      -2.92713584      -9.03313971      -0.00630896      -0.00651040       0.00011550
V        4.39290303       4.39802126      -4.36963103      -8.93781204       0.00269194       0.00564822       0.01035141
V        5.87191421       5.85084489      -5.85006521      -8.96643689      -0.00181831       0.00587392       0.00554549
V        1.46071398      -1.46121757       1.46601248      -9.04390626       0.00395598       0.00912965       0.00730423
V        2.91746100       0.01043874       0.00764216      -9.01182746       0.00467901       0.00113019       0.00646531
V        4.39701054       1.46439321      -1.47813296      -9.14340841       0.00109024      -0.00906740       0.00343867
V        5.85893416       2.95978377      -2.93000638      -8.95322255       0.00025015      -0.00461150       0.00799166
V        7.33638909       4.39762238      -4.39529028      -8.96434326      -0.00170751      -0.00141613       0.01318770
V        2.93358609      -2.91555444       2.93082733      -9.04982185       0.00227384      -0.01032881       0.00310956
V        4.39141874      -1.47085754       1.47674085      -8.95044173       0.00268938      -0.00383403       0.00070793
V        5.85863775      -0.00508933       0.01814700      -8.99930307       0.00907794       0.00319800       0.01027139
V        7.30296411       1.47787539      -1.49569245      -9.04383473      -0.00432870       0.00003233       0.02926696
V        8.79262364       2.96385793      -2.91662903      -9.05486236       0.00555470      -0.01198582       0.00717998
V        4.41093026      -4.37419563       4.39878282      -9.02456641       0.00161488      -0.02728037       0.01261038
V        7.32015039      -1.47234435       1.49028472      -8.95302552       0.00671137       0.00669878      -0.01310803
V       10.26601846       1.51240332      -1.46820845      -9.12708073      -0.01355695      -0.04098471       0.02407962
V        5.85995947      -5.85580707       5.84768921      -9.12025581      -0.00988611      -0.02543629       0.00507870
V        7.32586474      -4.39102533       4.39257363      -9.04410205      -0.00948192      -0.01535094       0.00608113
V        8.78917762      -2.92302176       2.94427078      -8.98130302      -0.00286403      -0.00047225       0.00216870
V       10.27075963      -1.47200082       1.52340722      -8.93494652      -0.01442363       0.02423112      -0.03445000
V       11.73718806       0.04598616       0.05457216      -8.86543352      -0.04224827      -0.05167915      -0.03677648
V       -1.44273920       1.46323759       1.47101820      -9.13007003      -0.00876448      -0.00593902      -0.00441092
V        0.00846958       2.92540619      -0.02331017      -9.17263739      -0.00845718      -0.01338912       0.00160350
V        1.47808288       4.39890295      -1.47640077      -9.07399487       0.00061437      -0.00726070       0.00092668
V        4.41236273       7.31423580      -4.37280670      -9.00098688      -0.00668132       0.00388020      -0.00915929
V        0.00928792      -0.02508386       2.92612966      -9.06136512      -0.00563639      -0.00113977      -0.00773007
V        1.46987381       1.46084018       1.47446065      -9.18502422       0.00316643       0.00258560       0.00092778
V        2.93012562       2.93240497      -0.01671237      -9.12831176      -0.00476183      -0.01568725      -0.01320503
V        4.39268902       4.40143734      -1.47948256      -8.97339864       0.00129492      -0.00565759      -0.01175385
V        5.86569088       5.85234238      -2.92861055      -8.91394374      -0.00163726       0.00462610       0.00143699
V        1.47252566      -1.46579849       4.39377429      -8.93112569       0.00191370      -0.00699042      -0.00049001
V        2.93298415      -0.00949076       2.93867811      -9.03069276       0.00597491       0.00020617       0.00216021
V        4.37328663       1.42569610       1.42751554      -8.91436060       0.04796050       0.03335827       0.04257502
V        5.87007792       2.94435639      -0.02190403      -8.98487224      -0.00418431      -0.02491395       0.06897676
V        7.33763044       4.40072575      -1.47100056      -8.95357003      -0.00219101      -0.00837320       0.00464062
V        2.93701587      -2.91644045       5.85739640      -8.98439744      -0.00254243      -0.01298921       0.00522915
V        4.39397164      -1.46761897       4.39082685      -8.92859892       0.00278171      -0.02017600      -0.00109602
V        5.86958894      -0.03714145       2.94262801      -8.95467638      -0.00115740       0.00540934      -0.00824927
V        8.79734088       2.94875115      -0.00253503      -8.95367661      -0.00389402      -0.03499423       0.00852486
V        4.40541453      -4.37570526       7.31803694      -9.01911215      -0.00529233      -0.01951137       0.00235399
V        5.86262772      -2.92489396       5.84516614      -8.98251364      -0.00228650      -0.01425069       0.00517700
V        7.33697440      -1.46774431       4.39723329      -8.90798284      -0.00271409      -0.02315180      -0.00363658
V        8.80674519      -0.00927428       2.94048569      -9.02393676      -0.01064892       0.00423654      -0.02680327
V       10.27733893       1.47898918       1.47855056      -8.91454847      -0.02381963      -0.00636899      -0.00956714
V       -2.91001480       2.92354988       2.92103210      -9.25465047      -0.01415411      -0.00394984      -0.00405696
V       -1.45459014       4.38256222       1.43521160      -9.17925352      -0.00659104      -0.00840736       0.00568602
V        1.47212768       7.31699221      -1.47576754      -9.22146526       0.00831563      -0.02315916       0.01219833
V        2.96776164       8.76780090      -2.91947256      -9.44751782      -0.00048914      -0.00324560      -0.00556410
V       -1.45226048       1.45357755       4.39103270      -9.19925513      -0.00568863       0.00241802      -0.00176002
V        1.46194189       4.37959947       1.45698581      -9.15098846       0.00430141       0.00686674       0.01355815
V        2.93794961       5.86264314      -0.01312075      -8.98058815      -0.01354757       0.00233299       0.02790187
V        4.40540280       7.31077771      -1.46595178      -9.00673253      -0.00197679      -0.00417117       0.00515417
V        0.00657446      -0.01177733       5.85669429      -8.94662594      -0.00416337      -0.00591484       0.00214618
V        1.44571903       1.44425793       4.37152807      -9.07760652      -0.01611823      -0.00982106      -0.02027999
V        2.96983226       2.93072979       2.93206442      -9.12634734      -0.03994053       0.00567623      -0.00583795
V        4.39202543       4.39477940       1.42948727      -8.83105670      -0.09593782      -0.08472508      -0.14722009
V        5.86570610       5.84139066      -0.04764306      -8.77125072      -0.00109326      -0.02907032       0.00825490
V        1.47077006      -1.47207565       7.32242870      -8.93824689       0.00869378      -0.00386011      -0.01243120
V        2.94868323      -0.01403847       5.84843037      -8.99409156       0.01174915       0.00390334      -0.00560251
V        4.42636239       1.48181750       4.42755402      -8.75471190      -0.00525891       0.01685571       0.04991443
V        7.30804226       4.42208499       1.51327080      -8.91270127       0.03324677      -0.15825989      -0.06672244
V        4.39681456      -1.46638182       7.31587646      -8.90925698      -0.00934908      -0.01089075       0.01130395
V        5.86132351      -0.03164387       5.84397342      -8.82302872      -0.00320524      -0.01859951       0.01393075
V        7.33397439       1.48168842       4.42824957      -9.17471610       0.08057848      -0.15544146      -0.02188726
V        8.83695255       2.89742432       2.90368581      -9.19939991      -0.06336584      -0.01316655       0.01587873
V       -4.33638757       4.37392278       4.39557577      -9.51079275      -0.03195855       0.00399637      -0.00654585
V       -2.91182295       5.87179511       2.92067743      -9.18876080      -0.02428161      -0.00332513      -0.00007453
V       -1.45764951       7.33984114       1.41762275      -9.02448123      -0.00091811      -0.00350830       0.00319223
V       -0.01489492       8.81057234      -0.04256897      -9.20335626      -0.00327829       0.01728187      -0.00949935
V       -2.89665040       2.91353336       5.87013606      -9.37854848       0.00153109      -0.00592937       0.00364341
V        1.45869360       7.31465090       1.42248140      -9.13788920       0.02028396      -0.01697467       0.02844775
V        2.94778957       8.77666282       0.00521971      -9.56391644       0.00661200      -0.01584070       0.02013117
V       -1.46362841       1.44977416       7.32934995      -9.05572763      -0.00637376      -0.01445823       0.01296596
V        2.85571325       5.89187267       2.90633696      -9.08859751       0.05113671      -0.07560422       0.22918320
V        4.46023043       7.27135272       1.49866504      -8.90519917      -0.00493564      -0.09734173       0.09226769
V       -0.01863869      -0.03567314       8.80311394      -8.80394945      -0.01545415      -0.04182135       0.03173910
V        1.44187390       1.43827811       7.33336147      -8.89173875      -0.01259515      -0.00713053       0.01095498
V        2.79403090       2.82397710       5.95433829      -8.59516226      -0.15473831       0.01063257       0.07920957
V        3.79325170       4.45760338       4.77197709      -7.92496811       0.62979343      -0.81945386       0.09236990
V        5.56252519       4.78352005       3.61687952      -7.88962239       0.35468950       2.46789461      -1.74429977
V        1.53951788      -1.47188542      10.23248067      -8.87677700      -0.13295355      -0.06189268       0.05962770
V        2.94060714       0.00443041       8.76735350      -8.91120597      -0.01802557      -0.02569192       0.01741314
V        4.44287123       1.49006807       7.30070700      -8.76182820       0.00261455       0.01873558       0.00694080
V        7.54195149       4.30676099       4.45748243      -8.92196752      -0.22954923      -0.23010177       0.24479230
V       -5.84571928       5.86879632       5.87390786      -9.29348801      -0.02061761      -0.01332219       0.02450406
V       -4.40020521       7.33081923       4.38528441      -9.07025648      -0.01768701      -0.01403885      -0.00627095
V       -2.90645966       8.77450142       2.94709795      -9.02179367      -0.00766367      -0.00708457       0.00011901
V       -1.45224760      10.25561979       1.50862079      -8.79343516       0.00633159      -0.00493950       0.01451963
V       -0.02132843      11.67638163      -0.03060837      -9.14045246       0.02777988       0.01416870       0.10478306
V       -2.92597321       5.87966752       5.86100267      -9.22790398      -0.00566253       0.00121442       0.00071633
V        1.44893696      10.27273307       1.44978807      -9.31291482       0.00429491      -0.01123526       0.01577035
V       -2.91144736       2.93701772       8.79073517      -9.11015768       0.00245732      -0.02079377       0.01094396
V       -1.46888152       4.37916457       7.34679091      -9.09108960       0.00320249      -0.00429841      -0.00370165
V       -0.04827560       5.87503517       5.87670506      -9.21021288       0.04326928       0.00011922      -0.00592001
V        1.44375707       7.32879483       4.40353074      -9.07611845      -0.00297839       0.03200540       0.01838358
V       -1.46116060       1.50716172      10.25388779      -8.89506720      -0.00948255      -0.02829164       0.02774362
V        0.00256648       2.92959027       8.79023790      -8.88652099      -0.00828344      -0.00854286       0.01255169
V        1.43120324       4.38407038       7.35648756      -8.96496836       0.00446167       0.05070703       0.01102817
V        2.79809445       6.00556894       6.01787005      -8.74255739       0.13193046      -0.18335093      -0.22292119
V        4.42388780       7.30405896       4.39271285      -9.05276701      -0.07131608      -0.04988280       0.06064188
V       -0.06032670      -0.09028810      11.66918301      -8.99047904      -0.01186195      -0.01916097       0.07506154
V        1.45687997       1.45272540      10.24705121      -9.06487649      -0.00683885      -0.00700613      -0.00001171
V        2.95039518       2.92246845       8.81365166      -8.98815200      -0.00452877      -0.00418528       0.01792713
V        4.42582627       4.36474132       7.38012043      -8.76725771      -0.03733753       0.02046036       0.12564491
V        5.84138246       5.88909382       5.93759915      -8.83986649      -0.02944475      -0.09410179       0.00585793
W        1.57645590      10.22303203      -1.45547805      -6.52881714       0.00309833      -0.00977140       0.02390849
Zr      -1.48600824       7.31416113       4.41091677      -7.97866430       0.00099484      -0.00991094       0.00920499
