124
Lattice="-7.32060916410201 7.319337295524605 7.321789780937772 7.317974618296534 -7.320027788227948 7.31984589126559 7.32234188632238 7.321760647421058 -7.322480236857273" Properties=species:S:1:pos:R:3:energies:R:1:forces:R:3 energy=-1094.95563702253 free_energy=-1094.95563702253 stress="-0.021667487275158884 7.047258937447578e-05 0.001065159184091638 7.047258937447578e-05 -0.01901922090692956 -0.0008229950152690911 0.001065159184091638 -0.0008229950152690911 -0.018043855181906227" pbc="T T T"
Cr       1.45375353       1.46454841      -1.47554639      -7.31149787       0.00278314       0.00466857       0.00747037
Cr       0.00580497       2.88381625       2.89910961      -7.39877714       0.00223007       0.00190311       0.00960181
Cr      -1.47860595       4.37929767       4.41025646      -7.35830023       0.01009953      -0.00584135       0.00910054
Cr       2.93817797       8.80731131       2.93204868      -7.29825926      -0.00208553       0.01814884       0.00149341
Ti       5.86642502      -2.92024810       2.93658847      -7.97810260       0.00040018       0.01034074      -0.00665642
Ti       8.78379616       0.01353914       0.02289809      -7.86061146       0.00527642      -0.02474643      -0.01684398
Ti       2.94214759       5.86194851      -2.91976451      -7.92982502      -0.00508693       0.00805030      -0.01437842
Ti       7.39291506       1.42595515       1.41899960      -7.82481310      -0.08316441       0.06363028       0.05858837
Ti       0.01492412       5.86250127      -0.02823386      -7.94593391      -0.00423255       0.00156801      -0.00813912
Ti       5.92046665       2.76778273       2.65187509      -7.60679992      -0.17379900       0.43819962       0.10191432
Ti       2.95067084      -2.92727801       8.76601724      -7.94849969      -0.00527064      -0.00964921      -0.00618669
Ti      -0.01386164       5.85253163       2.89620334      -8.33337895      -0.00947891      -0.01546532       0.01084594
Ti      -0.00846310       2.88788133       5.87501256      -8.30380644       0.02049015       0.00425617      -0.00061082
Ti       1.32817841       4.37932941       4.41218145      -8.33922523       0.04841719      -0.00734462       0.03102599
Ti      -4.38927040       4.39509993       7.33468730      -8.48112316      -0.00674379       0.00077089      -0.00965203
Ti       0.01027244       8.80980687       2.92022071      -8.08630015      -0.00771637       0.01224779      -0.00786134
V        0.01143037       0.01909023       0.01001976      -9.08112794      -0.01549179      -0.00573434      -0.01701654
V        2.92768945       2.93595734      -2.92926613      -9.03013131       0.00193097       0.00427722      -0.00883839
V        4.39301091       4.40006375      -4.38073430      -8.92911878       0.00348290       0.01246318      -0.02873653
V        5.87021058       5.84973666      -5.85836064      -8.96767898      -0.00822893       0.00359613      -0.02541310
V        1.45760548      -1.46132255       1.46058075      -9.04338265      -0.00694284       0.00923709      -0.01047821
V        2.91702510       0.01196871       0.00610165      -9.01230348       0.00356313       0.00580593       0.00206443
V        4.39734353       1.46697931      -1.47964042      -9.14345797       0.00378897      -0.00222465      -0.00344346
V        5.85852871       2.96219490      -2.93498977      -8.95663766       0.00002516       0.00223719      -0.01078907
V        7.33358823       4.39976027      -4.40322181      -8.95802572      -0.01254630       0.00615683      -0.01512013
V        2.93077872      -2.91338361       2.92679910      -9.05258495      -0.00890848      -0.00089237      -0.00928169
V        4.39068947      -1.46917314       1.47451764      -8.94994447      -0.00079072       0.00335726      -0.00568243
V        5.85862645      -0.00379579       0.01608507      -8.99917022       0.00970543       0.00685581       0.00366828
V        7.30552646       1.47506462      -1.50179217      -9.04704485       0.00542877      -0.01352710       0.00695872
V        8.79011758       2.96866031      -2.91840191      -9.04959368      -0.00381543       0.00438910       0.00095980
V        4.41107124      -4.36358960       4.39612267      -9.03392324       0.00312062       0.01011726       0.00472778
V        7.31762130      -1.46731486       1.49318608      -8.95038552      -0.00334966       0.02645761      -0.00100238
V       10.26597122       1.51514172      -1.46880778      -9.12678191      -0.01380735      -0.03481202       0.02309622
V        5.86192715      -5.84553852       5.84818739      -9.11886282      -0.00343280       0.01214345       0.00541601
V        7.32837837      -4.38333996       4.39105164      -9.05279909      -0.00060913       0.01281066       0.00176523
V        8.79212106      -2.92075555       2.94089194      -8.98496167       0.00750659       0.00692998      -0.00908675
V       10.27121850      -1.47253818       1.52096509      -8.93797558      -0.01506391       0.02413277      -0.04483781
V       11.73813911       0.04983144       0.05259634      -8.86397356      -0.04125227      -0.03822341      -0.04821287
V       -1.44265389       1.46353920       1.47113944      -9.12912399      -0.00926711      -0.00602308      -0.00318145
V        0.00955803       2.92744639      -0.02410250      -9.16916897      -0.00530602      -0.00626209      -0.00061380
V        1.47931313       4.40090664      -1.47884767      -9.07572348       0.00370225      -0.00037087      -0.00850012
V        4.41252921       7.31391108      -4.37529035      -9.00309790      -0.00570847       0.00139964      -0.01976221
V        0.00832278      -0.02472736       2.92426437      -9.06503752      -0.00838945      -0.00139879      -0.01410610
V        1.46973547       1.46074636       1.47454167      -9.18347894       0.00327038       0.00096752       0.00393086
V        2.93381685       2.93799584      -0.01216197      -9.13030960       0.00726021       0.00186995       0.00026015
V        4.39243001       4.40346354      -1.48086673      -8.95895195       0.00245481       0.00035896      -0.02189210
V        5.86512425       5.85336577      -2.93229931      -8.91502594      -0.00317789       0.00678723      -0.01260087
V        1.47088787      -1.46344956       4.39154916      -8.92867447      -0.00230164       0.00161029      -0.00787748
V        2.92865931      -0.01406420       2.93307437      -9.02753520      -0.00743109      -0.01206498      -0.01505000
V        4.37287992       1.42762336       1.42489218      -8.91399719       0.04920159       0.04292405       0.03407939
V        5.86967596       2.94866919      -0.03757266      -8.98962931      -0.00407233      -0.01131959       0.00764708
V        7.33752647       4.40287156      -1.47670960      -8.95563977      -0.00084935      -0.00171502      -0.01650794
V        2.93688594      -2.91490414       5.85482743      -8.98504419      -0.00215786      -0.00620565      -0.00254430
V        4.39413894      -1.46723821       4.38887506      -8.94243397       0.00193879      -0.01383587      -0.00698553
V        5.87032282      -0.02534387       2.93670059      -8.94601267       0.00045014       0.05692014      -0.02981020
V        8.79634004       2.95098130      -0.00480390      -8.95065528      -0.00785071      -0.02749883       0.00103754
V        4.40516055      -4.37279315       7.31780735      -9.01712803      -0.00719150      -0.00780086       0.00237755
V        5.86318802      -2.92057643       5.84397594      -8.98155873      -0.00184110       0.00153358       0.00189860
V        7.33777945      -1.46089592       4.39562354      -8.90441949      -0.00133287       0.00040532      -0.00859549
V        8.80756306      -0.00696554       2.93949392      -9.02937680      -0.00810982       0.01096468      -0.03251825
V       10.27762686       1.47884103       1.47873922      -8.91417734      -0.02400825      -0.00779675      -0.01025975
V       -2.90953969       2.92371304       2.92114581      -9.25357798      -0.01476378      -0.00449371      -0.00235385
V       -1.45463491       4.38407688       1.43418799      -9.17999414      -0.00911182      -0.00186966       0.00201036
V        1.47373152       7.32080059      -1.48010379      -9.22031829       0.01377204      -0.01462917      -0.00478722
V        2.96313235       8.77052366      -2.92149141      -9.44798871      -0.01727120       0.00618264      -0.01254165
V       -1.45179107       1.45390260       4.38965464      -9.19805912      -0.00301151       0.00305755      -0.00717351
V        1.45743062       4.37161564       1.44887621      -9.13131050      -0.01360445      -0.02101932      -0.01084630
V        2.94614109       5.85875454      -0.01988273      -8.99161385       0.01095030      -0.00810436       0.00249606
V        4.40284902       7.31539045      -1.46983926      -9.00487205      -0.01047876       0.01057294      -0.01253855
V        0.00987396      -0.00520098       5.85436803      -8.95117189       0.01048136       0.01708077      -0.00665871
V        1.45106982       1.45169553       4.38048675      -9.10198400       0.00411193       0.01408364       0.01098756
V        2.96974846       2.92998705       2.93383945      -9.12178175      -0.04214326       0.00533590      -0.00047815
V        4.41629683       4.43190644       1.47753938      -8.74796931      -0.01915787       0.05135131       0.00898587
V        5.86453828       5.85237423      -0.05334993      -8.77126376      -0.00392809       0.01373675      -0.01608315
V        1.46966152      -1.46831521       7.31969328      -8.93520145       0.00553230       0.01043896      -0.02066377
V        2.93916373      -0.00839270       5.85202734      -8.98383102      -0.01804854       0.02773691       0.00450262
V        4.39366827       1.43710886       4.39178005      -8.83604181      -0.11665611      -0.13435266      -0.08311748
V        7.31462464       4.45447490       1.48877200      -8.74197636       0.05671899      -0.03836371      -0.15628936
V        4.39878124      -1.46280252       7.31159891      -8.90543132      -0.00457979       0.00428976      -0.00321170
V        5.86026647      -0.02419528       5.83225902      -8.83481881      -0.00847013       0.01204868      -0.03340806
V        7.32054827       1.50852878       4.39648599      -9.37056609       0.03599756      -0.06453713      -0.14689978
V        8.83980766       2.90544355       2.89435897      -9.20295669      -0.05551597       0.01376998      -0.01385264
V       -4.33094176       4.37429880       4.39590898      -9.50981734      -0.01322420      -0.00336228       0.00294263
V       -2.90546776       5.87345430       2.91956544      -9.19892147      -0.00316293       0.00517135      -0.00567098
V       -1.45909084       7.34350255       1.41472116      -9.02573755      -0.00907657       0.01057808      -0.00918067
V       -0.01758294       8.81203685      -0.04744751      -9.22360412      -0.01762644       0.02554835      -0.03278172
V       -2.90405546       2.91434011       5.86897167      -9.35865620      -0.02426838      -0.00081278      -0.00365508
V        1.45161409       7.32287083       1.41202289      -9.11246809      -0.00756957       0.01169289      -0.00751519
V        2.94389995       8.78391495      -0.00404702      -9.54852064      -0.00762378       0.00763890      -0.01032361
V       -1.46213251       1.45362818       7.32464357      -9.05369394      -0.00016786      -0.00003368      -0.00307369
V        2.79823577       5.93758176       2.84372286      -8.76112983      -0.15760035       0.08978142       0.00395473
V        4.46288064       7.29727886       1.48057908      -8.83492345       0.00064940      -0.00059176       0.02556211
V       -0.01702236      -0.02944694       8.80112547      -8.78746421      -0.00777903      -0.01518955       0.02227030
V        1.44894008       1.44734587       7.32621268      -8.91992428       0.01413520       0.02569208      -0.01455590
V        2.85006493       2.88374552       5.90969468      -8.90799640       0.04260850       0.23768271      -0.08324990
V        3.78359557       4.72981019       4.50792717      -7.92895679       0.62510814       0.09856604      -0.82859396
V        5.57605928       3.60702818       4.78532538      -8.00824080       0.42378530      -1.74046422       2.46770814
V        1.57768670      -1.44917996      10.21537988      -8.81316073       0.00621464       0.01979747      -0.00266021
V        2.94736004       0.01777435       8.75685312      -8.90882906       0.00603799       0.02202152      -0.02057145
V        4.43853767       1.51018170       7.27431164      -8.83302120      -0.01020085       0.09804718      -0.09472517
V        7.55348216       4.44623586       4.31743561      -8.84023332      -0.20196611       0.26019359      -0.24991425
V       -5.84243510       5.87914357       5.86464560      -9.29293390      -0.00899073       0.02035618      -0.00593662
V       -4.39453146       7.33794136       4.38688141      -9.06235537       0.00372284       0.01049228      -0.00097032
V       -2.90408689       8.77969300       2.94204610      -9.01601740       0.00041497       0.00993620      -0.02086233
V       -1.45778792      10.26614346       1.49820100      -8.81031769      -0.01356571       0.03512031      -0.02319508
V       -0.03782089      11.68529109      -0.07257363      -9.29778658      -0.03103715       0.05194854      -0.04514134
V       -2.92604174       5.88018413       5.86047589      -9.22561739      -0.00451112       0.00063233      -0.00102813
V        1.44593136      10.27684886       1.44105662      -9.30499078      -0.00845792       0.00507295      -0.01240348
V       -2.91501250       2.94208013       8.78539084      -9.10846313      -0.00974696      -0.00043516      -0.00656166
V       -1.46930974       4.38089553       7.34574854      -9.09185057       0.00112375       0.00271526      -0.00744163
V       -0.04916087       5.87418173       5.87784098      -9.20806076       0.04028198      -0.00655621      -0.00109981
V        1.44750578       7.32367132       4.41216920      -9.07938724       0.01085303       0.01131692       0.04899343
V       -1.45690856       1.51913413      10.24499013      -8.87843659       0.00473329       0.01341683      -0.00388406
V        0.00511348       2.92974173       8.78743166      -8.88376262       0.00100737      -0.00747192       0.00427453
V        1.42631522       4.37625606       7.36078631      -8.95406265      -0.01212590       0.02446545       0.03010749
V        2.79645630       6.00035835       6.02956581      -8.72978042       0.13127056      -0.21115494      -0.18371091
V        4.43554844       7.35442965       4.38047806      -8.86882244      -0.03322759       0.12209817       0.01128308
V       -0.04787495      -0.04933336      11.65842618      -8.85521079       0.03294924       0.13094901       0.03418735
V        1.46048045       1.45905970      10.24406856      -9.06647406       0.00701981       0.01431375      -0.01130953
V        2.95182505       2.92367115       8.79711304      -8.98907409       0.00032007      -0.00020810      -0.03994443
V        4.41625654       4.37563381       7.32557487      -8.95165873      -0.07165260       0.06904405      -0.05851732
V        5.84009959       5.91989348       5.91056302      -8.84338153      -0.03455258       0.02014761      -0.10027976
W        1.54042881      10.24008687      -1.48051474      -6.54182901      -0.13254906       0.05603681      -0.07378812
Zr      -1.48582911       7.31607085       4.40877263      -7.97601407       0.00190994      -0.00624962       0.00232932
