124
Lattice="-7.32060916410201 7.319337295524605 7.321789780937772 7.317974618296534 -7.320027788227948 7.31984589126559 7.32234188632238 7.321760647421058 -7.322480236857273" Properties=species:S:1:pos:R:3:energies:R:1:forces:R:3 energy=-1098.1842182339192 free_energy=-1098.1842182339192 stress="-0.010495140361410351 0.000461803334917952 -0.0002123225594525066 0.000461803334917952 -0.00803647718424788 -0.0012846770553814964 -0.0002123225594525066 -0.0012846770553814964 -0.008969745781288887" pbc="T T T"
Cr       1.45682953       1.45888160      -1.46743309      -7.31946110      -0.00053306      -0.01115083       0.02143741
Cr       0.00790341       2.88764560       2.90487052      -7.40977952       0.01601021       0.00925544       0.01438503
Cr      -1.47646440       4.38407644       4.41097165      -7.36261228       0.00630858       0.00834256       0.00984976
Cr       2.92876374       8.77834464       2.94141024      -7.28522055      -0.02578280      -0.03972215       0.03443807
Ti       5.86459829      -2.93198427       2.93953926      -7.97456201      -0.00391198      -0.03585489      -0.00100585
Ti       8.78029924       0.00596677       0.01743570      -7.91557464      -0.00742342      -0.02392328      -0.00804849
Ti       2.94213432       5.85788130      -2.91716135      -7.93118811      -0.00277904      -0.00255623      -0.00076002
Ti       7.36230944       1.44305615       1.44969427      -7.91270152      -0.12984459       0.07304946       0.11016856
Ti       0.01581215       5.85849776      -0.01742698      -7.94399412       0.00577205      -0.01078257       0.01335128
Ti       5.86448374       2.79627287       2.86285232      -7.87049432      -0.21165814       0.44141078       0.41731085
Ti       2.93638959      -2.92946076       8.77786070      -7.97532297      -0.04782440      -0.01280885       0.03239358
Ti      -0.00059049       5.85598164       2.90019104      -8.32309882       0.03067414      -0.00166663       0.01558587
Ti      -0.01352345       2.89205012       5.87199927      -8.31981782       0.01612565       0.00017432       0.00536465
Ti       1.38199712       4.38936731       4.40742658      -8.37220604       0.19888864      -0.00325876       0.02587191
Ti      -4.38759668       4.39212131       7.33645297      -8.48456483      -0.01584208      -0.01088255      -0.00195093
Ti       0.01165622       8.80274199       2.92403966      -8.08566325       0.00349846      -0.01805472       0.01224604
V        0.00766595       0.00843003       0.01136252      -9.09099462      -0.03213325      -0.02642495      -0.01133066
V        2.92479964       2.93050739      -2.92578795      -9.02987018      -0.00431697      -0.00795052      -0.00158514
V        4.39063494       4.39738324      -4.36975945      -8.93763123      -0.00262231       0.00632625       0.00944323
V        5.86689187       5.84807527      -5.85407600      -8.96424142      -0.01821856       0.00209650      -0.01056742
V        1.46204400      -1.46312170       1.46751069      -9.04317910      -0.00533201      -0.00130039       0.00804721
V        2.91916260       0.00551586       0.00976804      -9.01655560      -0.00212661      -0.01419931       0.00679140
V        4.39587495       1.46114448      -1.47129348      -9.13810766      -0.00328991      -0.01609926       0.01278338
V        5.85785383       2.95770231      -2.92376430      -8.95256494      -0.00239495      -0.01075522       0.01292418
V        7.33484595       4.39598079      -4.39151334      -8.96814056      -0.01171034      -0.00234125       0.02418402
V        2.93443614      -2.91987936       2.93333823      -9.04942977       0.00100716      -0.02070822       0.00718072
V        4.39086506      -1.47042584       1.47860392      -8.94667533      -0.00437157      -0.00736636      -0.00159886
V        5.85988305      -0.00309064       0.02660447      -9.02126280       0.00323315       0.00956316       0.02526403
V        7.30285752       1.47126985      -1.48573982      -9.04090512       0.00233880      -0.02011612       0.02612913
V        8.79267829       2.95866059      -2.91224327      -9.05474327       0.00591308      -0.01938971       0.01127797
V        4.41039180      -4.38385078       4.39952272      -9.03260141       0.00334124      -0.03306110       0.00750929
V        7.31839379      -1.46724837       1.49086602      -8.94807753       0.00281108       0.01460455      -0.00600843
V       10.25865326       1.48804868      -1.45866757      -9.11816013      -0.01933259      -0.07750692       0.04232367
V        5.85309507      -5.86329584       5.85777532      -9.12191976      -0.02593117      -0.02428724       0.04093297
V        7.32062625      -4.40036928       4.39100560      -9.06326100      -0.02335477      -0.02937841      -0.00316409
V        8.78731246      -2.92561352       2.94265297      -8.98355097      -0.00078146      -0.01218543      -0.00437038
V       10.26384278      -1.46982215       1.50444189      -8.92964651      -0.01716971       0.02179430      -0.05895801
V       11.71987811       0.02454468       0.04002558      -8.88537283      -0.04639798      -0.07495857      -0.05488238
V       -1.44852651       1.45878316       1.47179592      -9.13750270      -0.02513133      -0.01793831      -0.00639062
V        0.00221124       2.92055459      -0.02154648      -9.16985966      -0.01612683      -0.01058460       0.00296452
V        1.47796852       4.39656402      -1.47418925      -9.07539562       0.00346411      -0.01044404       0.00486219
V        4.40828739       7.31192413      -4.37478457      -8.99939336      -0.01607423       0.00067999      -0.00477049
V        0.00383328      -0.02811557       2.92737112      -9.05999135      -0.01367726      -0.00835386       0.00481206
V        1.46451701       1.45367176       1.47413530      -9.17789268      -0.00924060      -0.02291069      -0.00776519
V        2.92936021       2.92709485      -0.00990274      -9.12656276       0.00170083      -0.02571379       0.01148221
V        4.39483714       4.40172444      -1.47012991      -8.97699120       0.01090540       0.00175523       0.01776118
V        5.86308777       5.85093314      -2.92347729      -8.90568384      -0.00828541       0.00243905       0.02415325
V        1.47105726      -1.46741665       4.39835291      -8.93438424      -0.00464815      -0.01192692       0.01578563
V        2.93342089      -0.00896190       2.94062489      -9.03479913       0.00766075      -0.00736481      -0.00469199
V        4.38709495       1.43682672       1.45477168      -8.94368161       0.06345113       0.04362661       0.09887924
V        5.86726401       2.92824369      -0.00224490      -8.97136430      -0.01530929      -0.06017001       0.06504073
V        7.33294851       4.40021463      -1.46377480      -8.96789772      -0.02370255      -0.00164900       0.01980794
V        2.93552151      -2.92030925       5.86000759      -8.97945399      -0.00901002      -0.01604683       0.01004697
V        4.39392186      -1.46861393       4.39242870      -8.93132931       0.00087012      -0.02586293      -0.00068484
V        5.87014903      -0.01629563       2.94228289      -8.94312621      -0.00117337       0.06786434      -0.01252605
V        8.79514745       2.93516699       0.00309630      -8.95128803      -0.01792627      -0.05077413       0.01908394
V        4.40139290      -4.38362040       7.31964505      -9.01712188      -0.01246283      -0.02322760       0.00903687
V        5.85973672      -2.93048691       5.84622730      -8.98303327      -0.00878619      -0.01866651       0.00734045
V        7.33579427      -1.47292547       4.39769904      -8.91160770      -0.00922543      -0.03176586      -0.00297401
V        8.80254242      -0.00690207       2.93598684      -9.03102088      -0.02236716       0.00984104      -0.02215263
V       10.26770664       1.47085307       1.47582761      -8.92223729      -0.04103988      -0.02265669      -0.00794033
V       -2.91696795       2.92131329       2.92153730      -9.25519056      -0.03562651      -0.00833931       0.00488296
V       -1.45933546       4.38024774       1.43900676      -9.18156214      -0.01898292      -0.00587142       0.01649826
V        1.47449728       7.31329079      -1.47142223      -9.21866492       0.00357221      -0.01511864       0.01303569
V        2.96258753       8.76998284      -2.91914970      -9.45316793      -0.02968976       0.00215500       0.00122972
V       -1.45587856       1.45258560       4.39351530      -9.20388369      -0.01561375       0.00126488       0.00839453
V        1.45707271       4.37985850       1.45901478      -9.15271523       0.00116370      -0.00108213       0.00907245
V        2.93273474       5.85854587      -0.00168206      -8.97244271      -0.00883866      -0.02036859       0.03599328
V        4.40598552       7.30527720      -1.45698064      -9.01182138       0.00055519      -0.01962662       0.03328938
V        0.00070429      -0.01634639       5.86736462      -8.95041627      -0.01191207      -0.02078146       0.03374668
V        1.44157860       1.44019725       4.37988153      -9.07894983       0.00208577      -0.02235813       0.02740316
V        2.93699711       2.91442694       2.93895023      -9.04572780      -0.11032879      -0.05342998       0.03890211
V        4.37141117       4.36007808       1.44945322      -8.88157099      -0.06991542      -0.13457342       0.07519707
V        5.85987732       5.83429618      -0.00253755      -8.86408800      -0.02447337      -0.02786358       0.17112894
V        1.47223647      -1.47464154       7.32772075      -8.93126135      -0.00519568      -0.01412317       0.01874305
V        2.94463910      -0.00578352       5.85576141      -8.98548043      -0.01061419       0.01474857       0.01878041
V        4.43446722       1.47955720       4.42683419      -8.74714011       0.02856735      -0.02372473      -0.00895984
V        7.32660069       4.37300479       1.49420860      -8.90263452       0.05866743      -0.18929448      -0.08169748
V        4.39245832      -1.46739544       7.31989414      -8.90892489      -0.02191095      -0.00761772       0.01489267
V        5.86219899      -0.03590417       5.84818274      -8.82402490       0.00308547      -0.02336491       0.01223517
V        7.33115027       1.46982195       4.41832333      -9.17147284      -0.02092817      -0.05818946      -0.03324489
V        8.81536347       2.89917448       2.91759245      -9.21974899      -0.10117620       0.00207379       0.06154915
V       -4.36382665       4.37282550       4.39477469      -9.50698994      -0.11362656      -0.01031939       0.00250358
V       -2.92276074       5.87014726       2.92217192      -9.17928696      -0.05354819      -0.00832106       0.01030728
V       -1.46118578       7.33971655       1.41894578      -9.02664274      -0.01074221       0.00222951       0.00056343
V       -0.01967673       8.81633875      -0.04917238      -9.20718270      -0.01556313       0.01314160      -0.01185503
V       -2.90197857       2.91098394       5.87205574      -9.37205483      -0.02453428      -0.01447526       0.00593417
V        1.46071029       7.30939314       1.43032594      -9.14562400       0.02491848      -0.02531164       0.03389376
V        2.94317545       8.77477821       0.00579487      -9.55740105      -0.01796229      -0.00360593      -0.00066851
V       -1.46576652       1.44480583       7.33052068      -9.05420889      -0.00569396      -0.01179282       0.00174626
V        2.87157298       5.86174423       2.94367769      -9.17067795       0.07092633      -0.11545608       0.15004040
V        4.43228174       7.26625005       1.50008074      -9.01511771      -0.09699110      -0.01436400       0.00314936
V       -0.02088540      -0.05518871       8.81658220      -8.93448105      -0.00929960      -0.05965930       0.04531542
V        1.43882726       1.44107802       7.33595291      -8.91350626      -0.00714563       0.00356422       0.01330372
V        2.80705433       2.88175715       5.91821023      -8.73032636       0.05882007       0.20971783      -0.11914441
V        4.13857201       4.33133486       4.63360820      -8.50756611       1.28005931      -0.48187044      -0.49713480
V        5.71544961       5.38373945       3.24346715      -8.62541395       0.58217795       2.27549842      -1.44082338
V        1.49274881      -1.48811469      10.25015975      -9.00536460      -0.19391832      -0.06029341       0.07483892
V        2.93207594      -0.00003650       8.77101109      -8.91927380      -0.03998477      -0.02205361       0.02097287
V        4.43600889       1.50218386       7.28932654      -8.77356295      -0.01377558       0.04000761      -0.03580269
V        7.40972373       4.27572451       4.48219016      -9.13100684      -0.49398029      -0.11100068       0.11062411
V       -5.85737219       5.85194736       5.87028357      -9.31518873      -0.05679971      -0.06207339      -0.00632362
V       -4.41006124       7.32181092       4.38571092      -9.08537357      -0.04630672      -0.03728640       0.00129193
V       -2.90924901       8.77115328       2.94757881      -9.02229627      -0.01364507      -0.01149919       0.00062377
V       -1.45562155      10.25546403       1.51005423      -8.79650857      -0.01105124       0.00224341       0.00704972
V       -0.02015313      11.67592425      -0.02225973      -9.14615938      -0.01032742       0.00762516       0.05045509
V       -2.92901458       5.87811560       5.86212035      -9.22597871      -0.02068989      -0.00618445       0.00180243
V        1.45076808      10.26820753       1.45243395      -9.30547898       0.00481548      -0.02030278       0.01421264
V       -2.91062552       2.92671354       8.79572582      -9.11554885       0.00538837      -0.04435437       0.02024853
V       -1.46773939       4.37683471       7.34746196      -9.09601278       0.00272751      -0.01008423      -0.00244896
V       -0.03031226       5.87338907       5.88072909      -9.20588676       0.07117630       0.00070352       0.01209308
V        1.45357017       7.31578085       4.41531805      -9.10020168       0.04689244      -0.04453095       0.05446853
V       -1.46311381       1.45357678      10.26248279      -8.93407615      -0.00572865      -0.20493469       0.03749086
V       -0.00656803       2.91741687       8.79814857      -8.88989271      -0.02274323      -0.04200894       0.02854230
V        1.42766394       4.39187003       7.35923953      -8.95677092      -0.00402285       0.03321485       0.01704270
V        2.85045643       5.91521705       5.94654328      -8.94624436       0.20203207      -0.34046462      -0.25665894
V        4.39253904       7.29873271       4.41983425      -9.06427395      -0.11221040      -0.01213610       0.11267586
V       -0.02707142      -0.06424383      11.70988862      -9.02977115       0.10871886       0.10727549       0.16248469
V        1.45920801       1.44680385      10.24770041      -9.06004978       0.00446975      -0.01799142       0.00580064
V        2.94480219       2.91834759       8.80648901      -8.98225193      -0.01257250      -0.00740180      -0.01738597
V        4.41563684       4.36491852       7.36433833      -8.77470004      -0.03524799       0.01720332      -0.04107870
V        5.84178888       5.88007500       5.92348309      -8.86923995      -0.01137223      -0.04457562      -0.05332910
W        1.56092998      10.22434087      -1.46468397      -6.56302429      -0.07584479       0.00393370      -0.03044235
Zr      -1.48654316       7.30930832       4.41657293      -7.98793822      -0.00498912      -0.02459713       0.01842336
