 vasp.6.4.2 20Jul23 (build Sep 20 2024 16:56:05) complex                         
 executed on              LinuxNV date 2024.12.10  17:42:12
 running    4 mpi-ranks, with    8 threads/rank, on    1 nodes
 distrk:  each k-point on    4 cores,    1 groups
 distr:  one band on NCORE=   1 cores,    4 groups
 OpenACC runtime initialized ...    4 GPUs detected


--------------------------------------------------------------------------------------------------------


 INCAR:
   ENCUT = 520.000000
   POTIM = 0.200000
   SIGMA = 0.200000
   EDIFF = 1.00e-06
   EDIFFG = -1.00e-02
   ALGO = Normal
   GGA = PE
   PREC = Accurate
   IBRION = 2
   ISIF = 2
   ISMEAR = 1
   LORBIT = 11
   NELM = 100
   NSW = -1
   LCHARG = .TRUE.
   LWAVE = .FALSE.
   LREAL = .FALSE.
   NSIM = 32

 POTCAR:    PAW_PBE V_pv 07Sep2000                
 POTCAR:    PAW_PBE Cr_pv 02Aug2007               
 POTCAR:    PAW_PBE Ti_pv 07Sep2000               
 POTCAR:    PAW_PBE V_pv 07Sep2000                
   SHA256 =  1175d3c8cb4ffd1d150a520fa74fae5c3ec72c0849b5615a94a5372dd2cf07f7 V_pv/POTCAR           
   COPYR  = (c) Copyright 07Sep2000 Georg Kresse                                                    
   COPYR  = This file is part of the software VASP. Any use, copying, and all other rights are regul
   COPYR  = If you do not have a valid VASP license, you may not use, copy or distribute this file. 
   VRHFIN =V: p6 d4 s1                                                                              
   LEXCH  = PE                                                                                      
   EATOM  =  1321.6206 eV,   97.1364 Ry                                                             
                                                                                                    
   TITEL  = PAW_PBE V_pv 07Sep2000                                                                  
   LULTRA =        F    use ultrasoft PP ?                                                          
   IUNSCR =        1    unscreen: 0-lin 1-nonlin 2-no                                               
   RPACOR =    1.700    partial core radius                                                         
   POMASS =   50.941; ZVAL   =   11.000    mass and valenz                                          
   RCORE  =    2.300    outmost cutoff radius                                                       
   RWIGS  =    2.300; RWIGS  =    1.217    wigner-seitz radius (au A)                               
   ENMAX  =  263.673; ENMIN  =  197.755 eV                                                          
   RCLOC  =    1.779    cutoff for local pot                                                        
   LCOR   =        T    correct aug charges                                                         
   LPAW   =        T    paw PP                                                                      
   EAUG   =  598.473                                                                                
   DEXC   =    0.000                                                                                
   RMAX   =    2.359    core radius for proj-oper                                                   
   RAUG   =    1.300    factor for augmentation sphere                                              
   RDEP   =    2.430    radius for radial grids                                                     
   RDEPT  =    1.700    core radius for aug-charge                                                  
                                                                                                    
   Atomic configuration                                                                             
    8 entries                                                                                       
     n  l   j            E        occ.                                                              
     1  0  0.50     -5360.7193   2.0000                                                             
     2  0  0.50      -598.4546   2.0000                                                             
     2  1  1.50      -499.0155   6.0000                                                             
     3  0  0.50       -66.5711   2.0000                                                             
     3  1  1.50       -40.5282   6.0000                                                             
     3  2  2.50        -2.4291   4.0000                                                             
     4  0  0.50        -3.8743   1.0000                                                             
     4  3  2.50        -1.3606   0.0000                                                             
   Description                                                                                      
     l       E           TYP  RCUT    TYP  RCUT                                                     
     1    -40.5282431     23  2.000                                                                 
     1      5.4423304     23  2.000                                                                 
     2     -2.4290905     23  2.300                                                                 
     2     -1.0472488     23  2.300                                                                 
     0     -3.8742754     23  2.300                                                                 
     0     27.2116520     23  2.300                                                                 
  local pseudopotential read in
  partial core-charges read in
  partial kinetic energy density read in
  atomic valenz-charges read in
  non local Contribution for L=            1  read in
    real space projection operators read in
  non local Contribution for L=            1  read in
    real space projection operators read in
  non local Contribution for L=            2  read in
    real space projection operators read in
  non local Contribution for L=            2  read in
    real space projection operators read in
  non local Contribution for L=            0  read in
    real space projection operators read in
  non local Contribution for L=            0  read in
    real space projection operators read in
    PAW grid and wavefunctions read in
 
   number of l-projection  operators is LMAX  =            6
   number of lm-projection operators is LMMAX =           18
 
 POTCAR:    PAW_PBE Cr_pv 02Aug2007               
   SHA256 =  c9a7df34d3cdbacf1090e328ef39c0b420964e11c23f63548d1ac9dd218cdba0 Cr_pv/POTCAR          
   COPYR  = (c) Copyright 02Aug2007 Georg Kresse                                                    
   COPYR  = This file is part of the software VASP. Any use, copying, and all other rights are regul
   COPYR  = If you do not have a valid VASP license, you may not use, copy or distribute this file. 
   VRHFIN =Cr : p6d5s1                                                                              
   LEXCH  = PE                                                                                      
   EATOM  =  1647.9177 eV,  121.1185 Ry                                                             
                                                                                                    
   TITEL  = PAW_PBE Cr_pv 02Aug2007                                                                 
   LULTRA =        F    use ultrasoft PP ?                                                          
   IUNSCR =        1    unscreen: 0-lin 1-nonlin 2-no                                               
   RPACOR =    2.080    partial core radius                                                         
   POMASS =   51.996; ZVAL   =   12.000    mass and valenz                                          
   RCORE  =    2.300    outmost cutoff radius                                                       
   RWIGS  =    2.500; RWIGS  =    1.323    wigner-seitz radius (au A)                               
   ENMAX  =  265.681; ENMIN  =  199.261 eV                                                          
   ICORE  =        3    local potential                                                             
   LCOR   =        T    correct aug charges                                                         
   LPAW   =        T    paw PP                                                                      
   EAUG   =  519.424                                                                                
   DEXC   =    0.000                                                                                
   RMAX   =    2.356    core radius for proj-oper                                                   
   RAUG   =    1.300    factor for augmentation sphere                                              
   RDEP   =    2.447    radius for radial grids                                                     
   RDEPT  =    1.882    core radius for aug-charge                                                  
                                                                                                    
   Atomic configuration                                                                             
    8 entries                                                                                       
     n  l   j            E        occ.                                                              
     1  0  0.50     -5880.4963   2.0000                                                             
     2  0  0.50      -667.0865   2.0000                                                             
     2  1  1.50      -560.6250   6.0000                                                             
     3  0  0.50       -73.9860   2.0000                                                             
     3  1  1.50       -45.4378   6.0000                                                             
     3  2  2.50        -2.9137   5.0000                                                             
     4  0  0.50        -4.0071   1.0000                                                             
     4  3  2.50        -1.3606   0.0000                                                             
   Description                                                                                      
     l       E           TYP  RCUT    TYP  RCUT                                                     
     1    -45.4377911     23  2.000                                                                 
     1      1.3605826     23  2.000                                                                 
     2     -2.9136672     23  2.300                                                                 
     2     -4.2742498     23  2.300                                                                 
     0     -4.0071320     23  2.300                                                                 
     0      9.4498803     23  2.300                                                                 
     3      2.7211652     23  2.300                                                                 
  local pseudopotential read in
  partial core-charges read in
  partial kinetic energy density read in
  atomic valenz-charges read in
  non local Contribution for L=            1  read in
    real space projection operators read in
  non local Contribution for L=            1  read in
    real space projection operators read in
  non local Contribution for L=            2  read in
    real space projection operators read in
  non local Contribution for L=            2  read in
    real space projection operators read in
  non local Contribution for L=            0  read in
    real space projection operators read in
  non local Contribution for L=            0  read in
    real space projection operators read in
    PAW grid and wavefunctions read in
 
   number of l-projection  operators is LMAX  =            6
   number of lm-projection operators is LMMAX =           18
 
 POTCAR:    PAW_PBE Ti_pv 07Sep2000               
   SHA256 =  f757a1b2c6d082f4c628fa3d987464a8763bf92e53844ac0500b0e2ddc9ce5c0 Ti_pv/POTCAR          
   COPYR  = (c) Copyright 07Sep2000 Georg Kresse                                                    
   COPYR  = This file is part of the software VASP. Any use, copying, and all other rights are regul
   COPYR  = If you do not have a valid VASP license, you may not use, copy or distribute this file. 
   VRHFIN =Ti: d3 s1                                                                                
   LEXCH  = PE                                                                                      
   EATOM  =  1042.5995 eV,   76.6289 Ry                                                             
                                                                                                    
   TITEL  = PAW_PBE Ti_pv 07Sep2000                                                                 
   LULTRA =        F    use ultrasoft PP ?                                                          
   IUNSCR =        1    unscreen: 0-lin 1-nonlin 2-no                                               
   RPACOR =    2.200    partial core radius                                                         
   POMASS =   47.880; ZVAL   =   10.000    mass and valenz                                          
   RCORE  =    2.500    outmost cutoff radius                                                       
   RWIGS  =    2.500; RWIGS  =    1.323    wigner-seitz radius (au A)                               
   ENMAX  =  222.335; ENMIN  =  166.751 eV                                                          
   RCLOC  =    1.701    cutoff for local pot                                                        
   LCOR   =        T    correct aug charges                                                         
   LPAW   =        T    paw PP                                                                      
   EAUG   =  482.848                                                                                
   DEXC   =    0.000                                                                                
   RMAX   =    2.564    core radius for proj-oper                                                   
   RAUG   =    1.300    factor for augmentation sphere                                              
   RDEP   =    2.538    radius for radial grids                                                     
   RDEPT  =    1.952    core radius for aug-charge                                                  
                                                                                                    
   Atomic configuration                                                                             
    8 entries                                                                                       
     n  l   j            E        occ.                                                              
     1  0  0.50     -4865.3608   2.0000                                                             
     2  0  0.50      -533.1368   2.0000                                                             
     2  1  1.50      -440.5031   6.0000                                                             
     3  0  0.50       -59.3186   2.0000                                                             
     3  1  1.50       -35.7012   6.0000                                                             
     3  2  2.50        -1.9157   3.0000                                                             
     4  0  0.50        -3.7291   1.0000                                                             
     4  3  2.50        -1.3606   0.0000                                                             
   Description                                                                                      
     l       E           TYP  RCUT    TYP  RCUT                                                     
     1    -35.7012140     23  2.300                                                                 
     1     -1.3605826     23  2.300                                                                 
     2     -1.9156996     23  2.500                                                                 
     2     -0.4063033     23  2.500                                                                 
     0     -3.7290856     23  2.500                                                                 
     0     20.4087390     23  2.500                                                                 
  local pseudopotential read in
  partial core-charges read in
  partial kinetic energy density read in
  atomic valenz-charges read in
  non local Contribution for L=            1  read in
    real space projection operators read in
  non local Contribution for L=            1  read in
    real space projection operators read in
  non local Contribution for L=            2  read in
    real space projection operators read in
  non local Contribution for L=            2  read in
    real space projection operators read in
  non local Contribution for L=            0  read in
    real space projection operators read in
  non local Contribution for L=            0  read in
    real space projection operators read in
    PAW grid and wavefunctions read in
 
   number of l-projection  operators is LMAX  =            6
   number of lm-projection operators is LMMAX =           18
 
 -----------------------------------------------------------------------------
|                                                                             |
|               ----> ADVICE to this user running VASP <----                  |
|                                                                             |
|     You have a (more or less) 'large supercell' and for larger cells it     |
|     might be more efficient to use real-space projection operators.         |
|     Therefore, try LREAL= Auto in the INCAR file.                           |
|     Mind: For very accurate calculation, you might also keep the            |
|     reciprocal projection scheme (i.e. LREAL=.FALSE.).                      |
|                                                                             |
 -----------------------------------------------------------------------------

  PAW_PBE V_pv 07Sep2000                :
 energy of atom  1       EATOM=-1321.6206
 kinetic energy error for atom=    0.0054 (will be added to EATOM!!)
  PAW_PBE Cr_pv 02Aug2007               :
 energy of atom  2       EATOM=-1647.9177
 kinetic energy error for atom=    0.0057 (will be added to EATOM!!)
  PAW_PBE Ti_pv 07Sep2000               :
 energy of atom  3       EATOM=-1042.5995
 kinetic energy error for atom=    0.0019 (will be added to EATOM!!)
 
 
 POSCAR: V  Cr Ti
  positions in cartesian coordinates
  No initial velocities read in
 exchange correlation table for  LEXCH =        8
   RHO(1)=    0.500       N(1)  =     2000
   RHO(2)=  100.500       N(2)  =     4000
 


--------------------------------------------------------------------------------------------------------


 ion  position               nearest neighbor table
   1  0.009  0.006  0.010-   2 2.56  28 2.56 115 2.57  22 2.58  95 2.61 114 2.61   5 2.62  24 2.64
                           118 2.98
   2  0.999  0.005  0.203- 110 2.55   6 2.55  96 2.56   1 2.56  29 2.56   3 2.56  24 2.68  23 2.79
                            18 2.79   7 2.89
   3  0.007  0.001  0.401-   2 2.56   4 2.58   7 2.61  30 2.62 111 2.65  97 2.66  19 2.67  18 2.82

   4  0.004  0.001  0.598-  25 2.56   8 2.56  98 2.58   3 2.58  31 2.58  20 2.59 112 2.60   5 2.68
                           116 3.01
   5  0.001  0.004  0.805- 118 2.51 116 2.53  27 2.57  26 2.60  21 2.61 113 2.61   1 2.62   4 2.68
                            98 2.89 114 2.92 115 2.94
   6  0.006  0.203  0.201- 115 2.54   2 2.55   9 2.56  28 2.57  34 2.58   7 2.59  95 2.60  99 2.60
                           119 2.95
   7  0.003  0.199  0.398- 100 2.58  29 2.59   6 2.59  96 2.59  35 2.60   3 2.61  10 2.61   8 2.63
                             2 2.89
   8  0.005  0.199  0.601-  30 2.50   4 2.56  97 2.57  36 2.60  11 2.61 116 2.62   7 2.63 122 2.67

   9  0.001  0.397  0.198- 117 2.53 119 2.53   6 2.56  14 2.58  33 2.59  10 2.61  39 2.63 102 2.64
                           101 2.88 115 2.95
  10  0.005  0.402  0.401-  15 2.56  34 2.57  40 2.59 103 2.60   9 2.61   7 2.61  11 2.61  99 2.64

  11  0.003  0.400  0.601-  35 2.58  41 2.60 100 2.60 104 2.60   8 2.61  10 2.61  16 2.63  12 2.68
                           122 3.00
  12  0.009  0.402  0.810-  36 2.53  37 2.54 117 2.57 116 2.59  17 2.64  11 2.68 124 2.68 122 2.69
                            32 2.87 123 2.99
  13  0.006  0.606  0.011-  43 2.54  14 2.58  37 2.61 117 2.61 105 2.62  24 2.65  17 2.65 124 2.67

  14  0.000  0.597  0.204- 101 2.53  18 2.54  15 2.55  13 2.58   9 2.58  44 2.60  38 2.61 106 2.65
                           117 2.98
  15  0.003  0.598  0.402-  14 2.55  19 2.56  10 2.56  16 2.58  39 2.58  45 2.60 102 2.60 107 2.65

  16  0.004  0.603  0.603-  46 2.56  15 2.58  40 2.59 103 2.59  20 2.60 108 2.61  11 2.63  17 2.64
                           104 2.91
  17  0.003  0.602  0.805-  41 2.56 109 2.58  42 2.60 104 2.61  21 2.63  16 2.64  12 2.64  13 2.65
                           124 2.95
  18  0.992  0.794  0.220-  19 2.42  24 2.46 111 2.52  14 2.54 105 2.63   2 2.79   3 2.82  43 2.83
                           106 2.85  44 2.86
  19  0.993  0.792  0.405-  18 2.42  20 2.48 112 2.56  15 2.56 106 2.62  25 2.65  44 2.66   3 2.67
                           107 2.87
  20  0.003  0.803  0.603-  19 2.48  26 2.56 113 2.59   4 2.59  16 2.60  45 2.60 107 2.62  21 2.64

  21  0.004  0.805  0.807-  46 2.58  22 2.58 108 2.59   5 2.61 114 2.61  17 2.63  20 2.64 109 2.86

  22  0.205  0.005  0.002-  27 2.56  26 2.57  47 2.58  21 2.58   1 2.58  42 2.59  53 2.60  23 2.66

  23  0.225  0.024  0.220-  54 2.43  24 2.44  28 2.53  48 2.57  22 2.66  43 2.77   2 2.79  49 2.80
                            29 2.83  53 2.91
  24  0.029  0.829  0.057-  23 2.44  18 2.46  42 2.63 110 2.64   1 2.64  13 2.65   2 2.68  43 2.69
                           109 2.92
  25  0.201  0.002  0.598-  50 2.51   4 2.56  56 2.58  45 2.62  30 2.64  26 2.65  19 2.65  55 2.89

  26  0.199  1.000  0.801-  20 2.56  22 2.57  46 2.59  52 2.60   5 2.60  51 2.61  31 2.62  25 2.65

  27  0.200  0.201  0.003- 115 2.54  28 2.56  22 2.56   5 2.57  32 2.58  31 2.58  58 2.61  52 2.62
                           116 2.93
  28  0.206  0.206  0.203-  33 2.52  23 2.53  27 2.56   1 2.56   6 2.57  59 2.57  29 2.62  53 2.63
                           115 2.97
  29  0.202  0.196  0.400-   2 2.56   7 2.59  60 2.60  30 2.62  28 2.62  54 2.66  34 2.66  23 2.83
                            55 2.85
  30  0.201  0.207  0.605-   8 2.50  55 2.54  35 2.55  61 2.57   3 2.62  31 2.62  29 2.62  25 2.64

  31  0.195  0.201  0.803- 116 2.43  27 2.58   4 2.58  56 2.59  57 2.60  26 2.62  30 2.62  36 2.63

  32  0.196  0.397  0.999- 116 2.50 117 2.50  27 2.58  33 2.60  57 2.61  36 2.62  63 2.63  37 2.64
                            12 2.87 115 2.95
  33  0.201  0.398  0.200-  28 2.52 115 2.56  38 2.57  58 2.58   9 2.59  34 2.60  32 2.60  64 2.61
                           117 2.94
  34  0.202  0.401  0.401-  35 2.57  10 2.57  59 2.57   6 2.58  39 2.58  33 2.60  65 2.60  29 2.66

  35  0.201  0.401  0.599-  30 2.55  34 2.57  60 2.57  11 2.58  40 2.58   7 2.60  36 2.62  66 2.62

  36  0.201  0.404  0.801-  12 2.53  62 2.57  41 2.58  61 2.60   8 2.60  35 2.62  32 2.62  31 2.63
                           116 3.00
  37  0.202  0.603  0.000-  12 2.54  41 2.58  62 2.59  68 2.59  13 2.61  38 2.61  42 2.62  32 2.64
                           117 2.99
  38  0.196  0.592  0.196- 117 2.44  33 2.57  69 2.58  14 2.61  37 2.61  63 2.61  39 2.61  43 2.63

  39  0.201  0.600  0.401-  64 2.58  15 2.58  34 2.58  40 2.59  70 2.60  38 2.61   9 2.63  44 2.66

  40  0.203  0.602  0.602-  65 2.57  71 2.58  35 2.58  16 2.59  10 2.59  39 2.59  41 2.60  45 2.61

  41  0.200  0.602  0.801-  17 2.56  37 2.58  67 2.58  36 2.58  46 2.58  11 2.60  40 2.60  66 2.62

  42  0.201  0.805  0.004-  43 2.59  22 2.59  48 2.60  17 2.60  46 2.61  37 2.62  24 2.63  67 2.63

  43  0.206  0.800  0.203-  49 2.51  13 2.54  68 2.58  44 2.58  42 2.59  38 2.63  24 2.69  23 2.77
                            18 2.83  69 2.89
  44  0.199  0.803  0.400-  50 2.54  43 2.58  45 2.59  14 2.60  69 2.60  39 2.66  19 2.66  18 2.86

  45  0.201  0.801  0.599-  44 2.59  70 2.59  15 2.60  51 2.60  20 2.60  40 2.61  25 2.62  46 2.64
                            50 2.89
  46  0.199  0.801  0.802-  16 2.56  47 2.58  21 2.58  41 2.58  26 2.59  42 2.61  71 2.63  45 2.64

  47  0.400  1.000  0.997-  51 2.56  48 2.56  46 2.58  22 2.58  72 2.60  67 2.61  52 2.61  77 2.64

  48  0.408  0.004  0.198-  73 2.54  47 2.56  23 2.57  78 2.58  42 2.60  68 2.63  53 2.66  49 2.66

  49  0.394  0.999  0.396-  79 2.45  43 2.51  69 2.66  48 2.66  50 2.67  74 2.67  54 2.72  23 2.80
                           120 3.02
  50  0.392  0.996  0.600-  25 2.51  44 2.54  51 2.55  70 2.56 120 2.63 121 2.64  55 2.64  49 2.67
                            45 2.89
  51  0.401  0.001  0.800-  50 2.55  47 2.56  45 2.60  71 2.61  26 2.61  76 2.61  56 2.62  75 2.69
                           121 3.02
  52  0.400  0.202  0.999-  53 2.53  56 2.54  57 2.60  26 2.60  81 2.60  47 2.61  27 2.62  76 2.65

  53  0.406  0.207  0.197-  52 2.53  58 2.56  77 2.57  22 2.60  54 2.60  28 2.63  82 2.63  48 2.66
                            81 2.89  23 2.91
  54  0.413  0.216  0.402-  23 2.43  83 2.53  59 2.53  78 2.58  53 2.60  29 2.66  55 2.69  79 2.71
                            49 2.72  82 2.90
  55  0.388  0.195  0.593-  79 2.51  30 2.54  60 2.60  50 2.64  56 2.65  54 2.69  84 2.71  29 2.85
                            25 2.89
  56  0.395  0.201  0.801-  52 2.54  25 2.58  80 2.59  31 2.59  61 2.60  51 2.62  55 2.65 121 2.67

  57  0.398  0.402  0.999-  58 2.58  62 2.58  86 2.59  61 2.60  52 2.60  31 2.60  32 2.61  80 2.62

  58  0.402  0.404  0.200-  63 2.54  53 2.56  57 2.58  33 2.58  81 2.59  27 2.61  59 2.61  87 2.61

  59  0.402  0.407  0.401-  64 2.53  54 2.53  34 2.57  28 2.57  88 2.59  58 2.61  60 2.61  82 2.65

  60  0.398  0.400  0.599-  35 2.57  55 2.60  29 2.60  65 2.60  61 2.61  59 2.61  83 2.62  89 2.68

  61  0.401  0.403  0.801-  84 2.51  30 2.57  85 2.58  66 2.59  57 2.60  56 2.60  36 2.60  60 2.61

  62  0.400  0.601  0.999-  36 2.57  66 2.58  57 2.58  85 2.58  37 2.59  67 2.59  63 2.60  91 2.61

  63  0.400  0.599  0.199-  58 2.54  86 2.55  62 2.60  68 2.60  38 2.61  64 2.62  32 2.63  92 2.64

  64  0.400  0.601  0.401-  59 2.53  69 2.57  39 2.58  87 2.58  65 2.60  33 2.61  63 2.62  93 2.64

  65  0.401  0.602  0.601-  40 2.57  66 2.60  34 2.60  64 2.60  70 2.60  60 2.60  94 2.60  88 2.60

  66  0.401  0.603  0.801-  71 2.58  62 2.58  90 2.59  61 2.59  65 2.60  41 2.62  35 2.62  89 2.64

  67  0.400  0.800  0.998-  41 2.58  71 2.59  62 2.59  68 2.60  47 2.61  73 2.61  90 2.62  42 2.63

  68  0.403  0.800  0.199-  74 2.51  91 2.56  43 2.58  37 2.59  69 2.59  67 2.60  63 2.60  48 2.63

  69  0.394  0.794  0.394-  64 2.57  38 2.58  68 2.59  44 2.60  70 2.62  92 2.63  49 2.66 120 2.66
                            43 2.89
  70  0.401  0.801  0.600-  50 2.56  45 2.59  39 2.60  65 2.60  71 2.60  69 2.62  93 2.62  75 2.68
                           120 2.99
  71  0.401  0.801  0.800-  40 2.58  72 2.58  66 2.58  67 2.59  70 2.60  51 2.61  94 2.61  46 2.63

  72  0.599  0.998  0.998-  75 2.52  73 2.57  76 2.58  71 2.58  90 2.58  47 2.60  99 2.61  95 2.63
                           119 2.99
  73  0.603  0.001  0.198-  48 2.54  74 2.55  96 2.57  72 2.57 100 2.61  91 2.61  77 2.61  67 2.61

  74  0.596  0.995  0.390-  68 2.51  73 2.55  92 2.59  97 2.61  78 2.63 120 2.66 122 2.67  49 2.67
                            91 2.92
  75  0.610  0.001  0.809-  72 2.52  94 2.55 119 2.57 118 2.59  70 2.68  51 2.69 120 2.70 121 2.73
                            95 2.89 123 3.00
  76  0.604  0.199  0.002-  77 2.55  72 2.58 102 2.59 119 2.59  80 2.61  51 2.61  52 2.65 121 2.67

  77  0.603  0.203  0.199-  76 2.55  78 2.57  53 2.57  81 2.59  73 2.61  99 2.63 103 2.63  47 2.64

  78  0.606  0.203  0.397-  79 2.52  77 2.57  54 2.58  48 2.58 100 2.60 104 2.61  74 2.63  82 2.65
                           122 2.99
  79  0.577  0.197  0.578-  49 2.45  55 2.51  78 2.52  83 2.53  54 2.71 120 2.72 121 2.73 122 2.80
                           124 2.84
  80  0.599  0.397  0.998- 106 2.56  56 2.59  81 2.59  76 2.61  84 2.62  57 2.62  85 2.64 101 2.70
                           121 2.97
  81  0.600  0.402  0.200-  82 2.58  86 2.58  58 2.59  80 2.59  77 2.59 102 2.60  52 2.60 107 2.61
                           106 2.88  53 2.89
  82  0.607  0.409  0.403-  87 2.57  81 2.58 108 2.60 103 2.61  83 2.62  53 2.63  59 2.65  78 2.65
                           107 2.87  54 2.90
  83  0.603  0.408  0.603-  54 2.53  79 2.53  88 2.55  84 2.60  60 2.62  82 2.62 104 2.64 109 2.74
                           124 2.99
  84  0.595  0.408  0.799-  89 2.51  61 2.51  83 2.60 105 2.60  80 2.62 121 2.67 124 2.69  55 2.71
                            85 2.92
  85  0.599  0.601  0.000-  61 2.58  62 2.58 111 2.59  90 2.59  89 2.60 105 2.61  86 2.61  80 2.64
                            84 2.92
  86  0.598  0.600  0.200-  63 2.55 106 2.57  81 2.58  57 2.59  87 2.59  91 2.60  85 2.61 112 2.62

  87  0.601  0.605  0.403-  92 2.56  82 2.57  64 2.58  88 2.59  86 2.59 113 2.60 107 2.60  58 2.61

  88  0.602  0.603  0.602-  83 2.55  93 2.56  59 2.59  87 2.59  89 2.60  65 2.60 108 2.62 114 2.67

  89  0.606  0.606  0.804-  84 2.51  94 2.55  88 2.60  85 2.60 109 2.61 110 2.61  66 2.64  60 2.68

  90  0.602  0.801  0.000-  94 2.56  72 2.58  66 2.59  85 2.59  96 2.59 110 2.61  91 2.61  67 2.62

  91  0.601  0.800  0.200- 111 2.52  68 2.56  86 2.60  62 2.61  90 2.61  73 2.61  92 2.63  97 2.64
                            74 2.92
  92  0.602  0.803  0.404-  87 2.56 112 2.56  74 2.59  93 2.61  69 2.63  91 2.63  63 2.64  98 2.67
                           120 2.99
  93  0.604  0.802  0.605-  88 2.56  94 2.58 113 2.60 118 2.61  92 2.61  70 2.62  64 2.64 120 2.67

  94  0.602  0.800  0.803-  89 2.55  75 2.55  90 2.56 114 2.57  93 2.58  65 2.60  71 2.61  95 2.62
                           118 2.99
  95  0.805  0.004  0.001- 118 2.50 119 2.52   6 2.60   1 2.61  94 2.62  96 2.62 110 2.63  72 2.63
                            75 2.89 114 2.90 115 2.94
  96  0.801  0.001  0.200-   2 2.56  73 2.57   7 2.59  90 2.59  99 2.61 111 2.61  97 2.62  95 2.62

  97  0.804  0.004  0.404-   8 2.57 112 2.58 100 2.60  74 2.61  96 2.62  91 2.64   3 2.66  98 2.67
                           122 2.97
  98  0.811  0.003  0.611- 113 2.52 116 2.56   4 2.58 118 2.58  97 2.67  92 2.67 122 2.68 120 2.73
                             5 2.89 123 2.99
  99  0.803  0.201  0.195- 119 2.44 102 2.55   6 2.60  96 2.61  72 2.61 100 2.61  77 2.63  10 2.64

 100  0.805  0.202  0.397-   7 2.58 103 2.59  97 2.60  78 2.60  11 2.60  73 2.61  99 2.61 122 2.66

 101  0.810  0.399  0.008-  14 2.53 119 2.57 117 2.57 102 2.57 105 2.65 121 2.69  80 2.70 124 2.70
                             9 2.88 123 2.98
 102  0.801  0.399  0.203-  99 2.55 103 2.56 106 2.57 101 2.57  76 2.59  15 2.60  81 2.60   9 2.64
                           119 2.99
 103  0.806  0.403  0.403- 104 2.49 102 2.56 107 2.59 100 2.59  16 2.59  10 2.60  82 2.61  77 2.63

 104  0.805  0.409  0.596- 103 2.49 108 2.54  11 2.60  17 2.61  78 2.61  83 2.64 124 2.67 122 2.69
                            16 2.91
 105  0.800  0.598  0.003- 106 2.60  84 2.60  85 2.61  13 2.62 109 2.62 110 2.63  18 2.63 101 2.65
                           124 2.98
 106  0.793  0.593  0.199-  80 2.56 102 2.57  86 2.57 107 2.60 105 2.60  19 2.62  14 2.65 111 2.66
                            18 2.85  81 2.88
 107  0.800  0.600  0.403- 108 2.57 103 2.59 106 2.60  87 2.60  81 2.61  20 2.62 112 2.64  15 2.65
                            19 2.87  82 2.87
 108  0.806  0.607  0.605- 104 2.54 113 2.57 107 2.57  21 2.59  82 2.60  16 2.61  88 2.62 109 2.62

 109  0.814  0.619  0.813-  17 2.58 114 2.59  89 2.61 108 2.62 105 2.62 124 2.66  83 2.74  21 2.86
                           110 2.91  24 2.92
 110  0.806  0.804  0.008-   2 2.55 111 2.60  90 2.61  89 2.61 105 2.63  95 2.63  24 2.64 114 2.66
                           109 2.91
 111  0.795  0.800  0.203-  91 2.52  18 2.52 112 2.57  85 2.59 110 2.60  96 2.61   3 2.65 106 2.66

 112  0.799  0.803  0.402-  19 2.56  92 2.56 111 2.57 113 2.57  97 2.58   4 2.60  86 2.62 107 2.64

 113  0.803  0.803  0.602-  98 2.52 108 2.57 112 2.57  20 2.59  87 2.60  93 2.60   5 2.61 114 2.61
                           118 2.98
 114  0.805  0.812  0.806- 118 2.40  94 2.57 109 2.59 113 2.61   1 2.61  21 2.61 110 2.66  88 2.67
                            95 2.90   5 2.92
 115  0.004  0.200  0.004-   6 2.54  27 2.54  33 2.56   1 2.57 118 2.58 119 2.60 116 2.61 117 2.62
                           123 2.78  95 2.94   5 2.94   9 2.95  32 2.95  28 2.97
 116  0.009  0.201  0.805-  31 2.43  32 2.50 123 2.53   5 2.53  98 2.56  12 2.59 115 2.61   8 2.62
                            27 2.93  36 3.00   4 3.01 118 3.04 117 3.05 122 3.13
 117  0.009  0.405  0.009-  38 2.44  32 2.50 123 2.52   9 2.53 101 2.57  12 2.57  13 2.61 115 2.62
                            33 2.94  14 2.98  37 2.99 119 3.05 116 3.05 124 3.15
 118  0.808  0.999  0.807- 114 2.40  95 2.50   5 2.51 123 2.53 115 2.58  98 2.58  75 2.59  93 2.61
                           113 2.98   1 2.98  94 2.99 119 3.02 116 3.04
 119  0.805  0.200  0.007-  99 2.44 123 2.51  95 2.52   9 2.53  75 2.57 101 2.57  76 2.59 115 2.60
                             6 2.95  72 2.99 102 2.99 118 3.02 117 3.05 121 3.16
 120  0.596  0.002  0.597-  50 2.63  74 2.66  69 2.66  93 2.67  75 2.70  79 2.72  98 2.73 123 2.81
                           121 2.98  70 2.99  92 2.99 122 3.00  49 3.02
 121  0.599  0.203  0.796-  50 2.64  56 2.67  76 2.67  84 2.67 101 2.69  75 2.73  79 2.73 123 2.80
                            80 2.97 120 2.98 124 3.01  51 3.02 119 3.16
 122  0.799  0.201  0.599- 100 2.66   8 2.67  74 2.67  98 2.68 104 2.69  12 2.69 123 2.79  79 2.80
                            97 2.97  78 2.99 120 3.00  11 3.00 124 3.03 116 3.13
 123  0.820  0.201  0.819- 119 2.51 117 2.52 116 2.53 118 2.53 115 2.78 122 2.79 121 2.80 120 2.81
                           124 2.83 101 2.98  98 2.99  12 2.99  75 3.00
 124  0.801  0.406  0.800- 109 2.66 104 2.67  13 2.67  12 2.68  84 2.69 101 2.70 123 2.83  79 2.84
                            17 2.95 105 2.98  83 2.99 121 3.01 122 3.03 117 3.15
 
  LATTYP: Found a base centered monoclinic cell.
 ALAT       =    15.0482117230
 B/A-ratio  =     1.4081981607
 C/A-ratio  =     1.6569313785
 COS(beta)  =    -0.9052205732
  
  Lattice vectors:
  
 A1 = (   4.3071057600,   6.1309426610, -10.6177469370)
 A2 = ( -12.9951470410,   0.0135483230,  -0.0223585750)
 A3 = (  13.0316404910,  -0.0404660660,  21.2572762500)


Analysis of symmetry for initial positions (statically):
=====================================================================
 Subroutine PRICEL returns:
 Original cell was already a primitive cell.
 

 Routine SETGRP: Setting up the symmetry group for a 
 base centered monoclinic supercell.


 Subroutine GETGRP returns: Found  1 space group operations
 (whereof  1 operations were pure point group operations)
 out of a pool of  4 trial point group operations.


The static configuration has the point symmetry C_1 .


Analysis of symmetry for dynamics (positions and initial velocities):
=====================================================================
 Subroutine PRICEL returns:
 Original cell was already a primitive cell.
 

 Routine SETGRP: Setting up the symmetry group for a 
 base centered monoclinic supercell.


 Subroutine GETGRP returns: Found  1 space group operations
 (whereof  1 operations were pure point group operations)
 out of a pool of  4 trial point group operations.


The dynamic configuration has the point symmetry C_1 .


 Subroutine INISYM returns: Found  1 space group operations
 (whereof  1 operations are pure point group operations),
 and found     1 'primitive' translations


----------------------------------------------------------------------------------------

                                     Primitive cell                                     

  volume of cell :    1689.3617

  direct lattice vectors                    reciprocal lattice vectors
    12.995147041 -0.013548323  0.022358575     0.076899476  0.027363571  0.046994778
    -4.344442071 12.248515902 -0.022934774     0.000004010  0.081732338  0.047195846
    -4.307105760 -6.130942661 10.617746937    -0.000161924  0.000118924  0.094184924

  length of vectors
    12.995173338 12.996185776 12.995236356     0.094184943  0.094380205  0.094185138

  position of ions in fractional coordinates (direct lattice)
     0.008842646  0.005994915  0.009815621
     0.999276549  0.004851264  0.202711449
     0.007236484  0.000955508  0.401152913
     0.004019305  0.000985417  0.598318341
     0.001489367  0.003536834  0.804837210
     0.005802911  0.202778338  0.200919361
     0.003059405  0.199153345  0.398113569
     0.004850810  0.199404054  0.601391695
     0.001178477  0.397065584  0.197809410
     0.004617801  0.401717016  0.401297946
     0.003077050  0.399533785  0.601089332
     0.008697449  0.401679604  0.809666874
     0.006441971  0.605574846  0.011292856
     0.000097752  0.597115561  0.204498425
     0.002566375  0.598103414  0.401899764
     0.004344422  0.602976384  0.602590364
     0.003436097  0.601681938  0.804893229
     0.992489044  0.794256144  0.219584629
     0.992569695  0.792306594  0.405443731
     0.002950921  0.802649613  0.603027426
     0.003989829  0.804781424  0.807419721
     0.204686725  0.005083071  0.002015501
     0.225296239  0.024452543  0.219503092
     0.029102139  0.828755315  0.056601145
     0.201132367  0.002105966  0.598312552
     0.199128480  0.999935597  0.800559322
     0.199925701  0.201071540  0.002960277
     0.205735622  0.206241634  0.203305858
     0.201687519  0.195858699  0.400306445
     0.200517281  0.206827000  0.605121810
     0.195396888  0.200668880  0.802665909
     0.195973827  0.396880974  0.998500688
     0.201094648  0.397556834  0.200130188
     0.202134715  0.401437644  0.401466287
     0.200961199  0.401216888  0.598519502
     0.201164337  0.404013033  0.801034179
     0.202240993  0.602771938  0.000494048
     0.196468899  0.592491597  0.195984695
     0.201448465  0.599726771  0.401186855
     0.202827452  0.601638264  0.601872840
     0.199569262  0.602185967  0.801278177
     0.201429383  0.805209538  0.004363137
     0.205993938  0.799950819  0.202895301
     0.198523111  0.802691560  0.399948396
     0.201485708  0.801158415  0.599435030
     0.199169969  0.800870918  0.801604586
     0.399559348  0.999953480  0.996691240
     0.407724820  0.003767548  0.197843766
     0.393519839  0.998861616  0.395648921
     0.392493681  0.995654354  0.599774090
     0.400533973  0.001291719  0.800246447
     0.400020241  0.201700678  0.998568630
     0.406340419  0.207380512  0.196951486
     0.412697184  0.215842932  0.401757832
     0.387847186  0.195127341  0.592637358
     0.394794655  0.201340805  0.801187927
     0.398471742  0.401532106  0.999499874
     0.401675315  0.403940982  0.199647196
     0.401618328  0.406759037  0.401327074
     0.398317505  0.400262912  0.598827997
     0.401004398  0.403208010  0.801217212
     0.400079846  0.600840146  0.999187673
     0.400445938  0.598515766  0.198733633
     0.400253045  0.600827330  0.400909042
     0.400968544  0.602051897  0.601437657
     0.401302012  0.602742909  0.801481829
     0.399820501  0.800023857  0.998405689
     0.403135056  0.800044379  0.199322448
     0.393687064  0.793893935  0.393502079
     0.400910465  0.801422862  0.599573215
     0.400666138  0.800614036  0.799584284
     0.599418151  0.998445346  0.998137739
     0.602529231  0.001193585  0.198047259
     0.596222019  0.995334913  0.390106030
     0.610064782  0.001077354  0.808926280
     0.603937351  0.199382382  0.002026759
     0.603033538  0.202821482  0.199074126
     0.605560900  0.203089048  0.397437267
     0.576741900  0.197458235  0.578174783
     0.598545474  0.397271911  0.998136019
     0.600284906  0.401586007  0.199642992
     0.606668577  0.409304786  0.402673288
     0.603356346  0.407858720  0.602501076
     0.594943950  0.407606842  0.799495064
     0.599350946  0.600976985  0.000182020
     0.597837442  0.599567392  0.200243438
     0.601023171  0.604856948  0.402666805
     0.601799930  0.603261064  0.601925277
     0.606177019  0.605672106  0.804090336
     0.601999978  0.801286059  0.000006353
     0.600941520  0.800382234  0.200326906
     0.601821070  0.802557128  0.403621468
     0.604390134  0.802088364  0.605383840
     0.602456502  0.800181732  0.802554626
     0.804833556  0.004022169  0.000673437
     0.800691617  0.001357941  0.200214681
     0.804003783  0.003586778  0.403794318
     0.810808190  0.002549039  0.610887600
     0.803163370  0.200912598  0.194757919
     0.805009377  0.201566909  0.396751218
     0.809769337  0.399309390  0.008131931
     0.800748780  0.399229044  0.202936898
     0.805714719  0.403039483  0.402952624
     0.804529504  0.408563197  0.596217089
     0.800158976  0.598425001  0.003150793
     0.793058912  0.593039824  0.198813324
     0.799895465  0.600279958  0.403195969
     0.805720971  0.607266382  0.605392348
     0.814130113  0.618890353  0.813450478
     0.806012041  0.804235951  0.007949303
     0.795479256  0.799827108  0.202578578
     0.798542947  0.802596252  0.402000830
     0.803473604  0.803022881  0.601666499
     0.804735856  0.811911382  0.805531372
     0.004210949  0.199931392  0.003917143
     0.008851572  0.200521684  0.804710365
     0.009355785  0.404670598  0.008583916
     0.807605041  0.998516771  0.807346785
     0.805262815  0.199951862  0.007113686
     0.596375676  0.002065171  0.597168429
     0.598664821  0.202611673  0.796375315
     0.799164045  0.200576267  0.598755276
     0.820138600  0.201343898  0.819446979
     0.801089644  0.405753349  0.799872580

  ion indices of the primitive-cell ions
   primitive index   ion index
                 1           1
                 2           2
                 3           3
                 4           4
                 5           5
                 6           6
                 7           7
                 8           8
                 9           9
                10          10
                11          11
                12          12
                13          13
                14          14
                15          15
                16          16
                17          17
                18          18
                19          19
                20          20
                21          21
                22          22
                23          23
                24          24
                25          25
                26          26
                27          27
                28          28
                29          29
                30          30
                31          31
                32          32
                33          33
                34          34
                35          35
                36          36
                37          37
                38          38
                39          39
                40          40
                41          41
                42          42
                43          43
                44          44
                45          45
                46          46
                47          47
                48          48
                49          49
                50          50
                51          51
                52          52
                53          53
                54          54
                55          55
                56          56
                57          57
                58          58
                59          59
                60          60
                61          61
                62          62
                63          63
                64          64
                65          65
                66          66
                67          67
                68          68
                69          69
                70          70
                71          71
                72          72
                73          73
                74          74
                75          75
                76          76
                77          77
                78          78
                79          79
                80          80
                81          81
                82          82
                83          83
                84          84
                85          85
                86          86
                87          87
                88          88
                89          89
                90          90
                91          91
                92          92
                93          93
                94          94
                95          95
                96          96
                97          97
                98          98
                99          99
               100         100
               101         101
               102         102
               103         103
               104         104
               105         105
               106         106
               107         107
               108         108
               109         109
               110         110
               111         111
               112         112
               113         113
               114         114
               115         115
               116         116
               117         117
               118         118
               119         119
               120         120
               121         121
               122         122
               123         123
               124         124

----------------------------------------------------------------------------------------

 
 
 KPOINTS: KPOINTS created by Atomic Simulation Env

Automatic generation of k-mesh.
 Grid dimensions read from file:
 generate k-points for:    4    4    4

 Generating k-lattice:

  Cartesian coordinates                     Fractional coordinates (reciprocal lattice)
     0.019224869  0.006840893  0.011748694     0.250000000 -0.000000000 -0.000000000
     0.000001002  0.020433085  0.011798961     0.000000000  0.250000000  0.000000000
    -0.000040481  0.000029731  0.023546231     0.000000000  0.000000000  0.250000000

  Length of vectors
     0.023546236  0.023595051  0.023546285

  Shift w.r.t. Gamma in fractional coordinates (k-lattice)
     0.000000000  0.000000000  0.000000000

 
 Subroutine IBZKPT returns following result:
 ===========================================
 
 Found     36 irreducible k-points:
 
 Following reciprocal coordinates:
            Coordinates               Weight
  0.000000  0.000000  0.000000      1.000000
  0.250000  0.000000  0.000000      2.000000
  0.000000  0.000000 -0.250000      2.000000
  0.500000  0.000000  0.000000      1.000000
  0.000000  0.000000  0.500000      1.000000
  0.000000  0.250000  0.000000      2.000000
  0.250000  0.250000  0.000000      2.000000
  0.000000 -0.250000 -0.250000      2.000000
  0.500000  0.250000  0.000000      2.000000
  0.000000 -0.250000  0.500000      2.000000
 -0.250000  0.250000  0.000000      2.000000
  0.000000 -0.250000  0.250000      2.000000
  0.000000  0.500000  0.000000      1.000000
  0.250000  0.500000  0.000000      2.000000
  0.000000  0.500000 -0.250000      2.000000
  0.500000  0.500000  0.000000      1.000000
  0.000000  0.500000  0.500000      1.000000
  0.250000  0.000000  0.250000      2.000000
  0.500000  0.000000  0.250000      2.000000
 -0.250000  0.000000  0.500000      2.000000
 -0.250000  0.000000  0.250000      2.000000
  0.250000  0.250000  0.250000      2.000000
  0.500000  0.250000  0.250000      2.000000
 -0.250000 -0.250000  0.500000      2.000000
 -0.250000  0.250000  0.250000      2.000000
 -0.250000 -0.250000  0.250000      2.000000
  0.250000  0.500000  0.250000      2.000000
  0.500000  0.500000  0.250000      2.000000
 -0.250000  0.500000  0.500000      2.000000
 -0.250000  0.500000  0.250000      2.000000
  0.250000 -0.250000  0.250000      2.000000
  0.500000 -0.250000  0.250000      2.000000
 -0.250000  0.250000  0.500000      2.000000
  0.500000  0.000000  0.500000      1.000000
  0.500000  0.250000  0.500000      2.000000
  0.500000  0.500000  0.500000      1.000000
 
 Following cartesian coordinates:
            Coordinates               Weight
  0.000000  0.000000  0.000000      1.000000
  0.019225  0.006841  0.011749      2.000000
  0.000040 -0.000030 -0.023546      2.000000
  0.038450  0.013682  0.023497      1.000000
 -0.000081  0.000059  0.047092      1.000000
  0.000001  0.020433  0.011799      2.000000
  0.019226  0.027274  0.023548      2.000000
  0.000039 -0.020463 -0.035345      2.000000
  0.038451  0.034115  0.035296      2.000000
 -0.000082 -0.020374  0.035294      2.000000
 -0.019224  0.013592  0.000050      2.000000
 -0.000041 -0.020403  0.011747      2.000000
  0.000002  0.040866  0.023598      1.000000
  0.019227  0.047707  0.035347      2.000000
  0.000042  0.040836  0.000052      2.000000
  0.038452  0.054548  0.047095      1.000000
 -0.000079  0.040926  0.070690      1.000000
  0.019184  0.006871  0.035295      2.000000
  0.038409  0.013712  0.047044      2.000000
 -0.019306 -0.006781  0.035344      2.000000
 -0.019265 -0.006811  0.011798      2.000000
  0.019185  0.027304  0.047094      2.000000
  0.038410  0.034145  0.058843      2.000000
 -0.019307 -0.027215  0.023545      2.000000
 -0.019264  0.013622  0.023596      2.000000
 -0.019266 -0.027244 -0.000001      2.000000
  0.019186  0.047737  0.058893      2.000000
  0.038411  0.054578  0.070642      2.000000
 -0.019304  0.034085  0.058942      2.000000
 -0.019263  0.034055  0.035395      2.000000
  0.019183 -0.013562  0.023496      2.000000
  0.038408 -0.006722  0.035245      2.000000
 -0.019305  0.013652  0.047143      2.000000
  0.038369  0.013741  0.070590      1.000000
  0.038370  0.034174  0.082389      2.000000
  0.038371  0.054607  0.094188      1.000000
 


--------------------------------------------------------------------------------------------------------




 Dimension of arrays:
   k-points           NKPTS =     36   k-points in BZ     NKDIM =     36   number of bands    NBANDS=    820
   number of dos      NEDOS =    301   number of ions     NIONS =    124
   non local maximal  LDIM  =      6   non local SUM 2l+1 LMDIM =     18
   total plane-waves  NPLWV = 941192
   max r-space proj   IRMAX =      1   max aug-charges    IRDMAX=  21827
   dimension x,y,z NGX =    98 NGY =   98 NGZ =   98
   dimension x,y,z NGXF=   196 NGYF=  196 NGZF=  196
   support grid    NGXF=   196 NGYF=  196 NGZF=  196
   ions per type =             114   5   5
   NGX,Y,Z   is equivalent  to a cutoff of  12.54, 12.54, 12.54 a.u.
   NGXF,Y,Z  is equivalent  to a cutoff of  25.07, 25.07, 25.07 a.u.

 SYSTEM =  unknown system                          
 POSCAR =  V  Cr Ti                                

 Startparameter for this run:
   NWRITE =      2    write-flag & timer
   PREC   = accura    normal or accurate (medium, high low for compatibility)
   ISTART =      0    job   : 0-new  1-cont  2-samecut
   ICHARG =      2    charge: 1-file 2-atom 10-const
   ISPIN  =      1    spin polarized calculation?
   LNONCOLLINEAR =      F non collinear calculations
   LSORBIT =      F    spin-orbit coupling
   INIWAV =      1    electr: 0-lowe 1-rand  2-diag
   LASPH  =      F    aspherical Exc in radial PAW
 Electronic Relaxation 1
   ENCUT  =  520.0 eV  38.22 Ry    6.18 a.u.  24.16 24.16 24.16*2*pi/ulx,y,z
   ENINI  =  520.0     initial cutoff
   ENAUG  =  598.5 eV  augmentation charge cutoff
   NELM   =    100;   NELMIN=  2; NELMDL= -5     # of ELM steps 
   EDIFF  = 0.1E-05   stopping-criterion for ELM
   LREAL  =      F    real-space projection
   NLSPLINE    = F    spline interpolate recip. space projectors
   LCOMPAT=      F    compatible to vasp.4.4
   GGA_COMPAT  = T    GGA compatible to vasp.4.4-vasp.4.6
   LMAXPAW     = -100 max onsite density
   LMAXMIX     =    2 max onsite mixed and CHGCAR
   VOSKOWN=      0    Vosko Wilk Nusair interpolation
   ROPT   =    0.00000   0.00000   0.00000
 Ionic relaxation
   EDIFFG = -.1E-01   stopping-criterion for IOM
   NSW    =     -1    number of steps for IOM
   NBLOCK =      1;   KBLOCK =      1    inner block; outer block 
   IBRION =      2    ionic relax: 0-MD 1-quasi-New 2-CG
   NFREE  =      1    steps in history (QN), initial steepest desc. (CG)
   ISIF   =      2    stress and relaxation
   IWAVPR =     11    prediction:  0-non 1-charg 2-wave 3-comb
   ISYM   =      2    0-nonsym 1-usesym 2-fastsym
   LCORR  =      T    Harris-Foulkes like correction to forces

   POTIM  = 0.2000    time-step for ionic-motion
   TEIN   =    0.0    initial temperature
   TEBEG  =    0.0;   TEEND  =   0.0 temperature during run
   SMASS  =  -3.00    Nose mass-parameter (am)
   estimated Nose-frequenzy (Omega)   =  0.10E-29 period in steps = 0.31E+47 mass=  -0.386E-26a.u.
   SCALEE = 1.0000    scale energy and forces
   NPACO  =    256;   APACO  = 10.0  distance and # of slots for P.C.
   PSTRESS=    0.0 pullay stress

  Mass of Ions in am
   POMASS =  50.94 52.00 47.88
  Ionic Valenz
   ZVAL   =  11.00 12.00 10.00
  Atomic Wigner-Seitz radii
   RWIGS  =  -1.00 -1.00 -1.00
  virtual crystal weights 
   VCA    =   1.00  1.00  1.00
   NELECT =    1364.0000    total number of electrons
   NUPDOWN=      -1.0000    fix difference up-down

 DOS related values:
   EMIN   =  10.00;   EMAX   =-10.00  energy-range for DOS
   EFERMI =   0.00;   METHOD = LEGACY      
   ISMEAR =     1;   SIGMA  =   0.20  broadening in eV -4-tet -1-fermi 0-gaus

 Electronic relaxation 2 (details)
   IALGO  =     38    algorithm
   LDIAG  =      T    sub-space diagonalisation (order eigenvalues)
   LSUBROT=      F    optimize rotation matrix (better conditioning)
   TURBO    =      0    0=normal 1=particle mesh
   IRESTART =      0    0=no restart 2=restart with 2 vectors
   NREBOOT  =      0    no. of reboots
   NMIN     =      0    reboot dimension
   EREF     =   0.00    reference energy to select bands
   IMIX   =      4    mixing-type and parameters
     AMIX     =   0.40;   BMIX     =  1.00
     AMIX_MAG =   1.60;   BMIX_MAG =  1.00
     AMIN     =   0.10
     WC   =   100.;   INIMIX=   1;  MIXPRE=   1;  MAXMIX= -45

 Intra band minimization:
   WEIMIN = 0.0010     energy-eigenvalue tresh-hold
   EBREAK =  0.30E-09  absolut break condition
   DEPER  =   0.30     relativ break condition  

   TIME   =   0.40     timestep for ELM

  volume/ion in A,a.u.               =      13.62        91.94
  Fermi-wavevector in a.u.,A,eV,Ry     =   1.524423  2.880741 31.618097  2.323865
  Thomas-Fermi vector in A             =   2.632732
 
 Write flags
   LWAVE        =      F    write WAVECAR
   LDOWNSAMPLE  =      F    k-point downsampling of WAVECAR
   LCHARG       =      T    write CHGCAR
   LVTOT        =      F    write LOCPOT, total local potential
   LVHAR        =      F    write LOCPOT, Hartree potential only
   LELF         =      F    write electronic localiz. function (ELF)
   LORBIT       =     11    0 simple, 1 ext, 2 COOP (PROOUT), +10 PAW based schemes


 Dipole corrections
   LMONO  =      F    monopole corrections only (constant potential shift)
   LDIPOL =      F    correct potential (dipole corrections)
   IDIPOL =      0    1-x, 2-y, 3-z, 4-all directions 
   EPSILON=  1.0000000 bulk dielectric constant

 Exchange correlation treatment:
   GGA     =    PE    GGA type
   LEXCH   =     8    internal setting for exchange type
   LIBXC   =     F    Libxc                    
   VOSKOWN =     0    Vosko Wilk Nusair interpolation
   LHFCALC =     F    Hartree Fock is set to
   LHFONE  =     F    Hartree Fock one center treatment
   AEXX    =    0.0000 exact exchange contribution

 Linear response parameters
   LEPSILON=     F    determine dielectric tensor
   LRPA    =     F    only Hartree local field effects (RPA)
   LNABLA  =     F    use nabla operator in PAW spheres
   LVEL    =     F    velocity operator in full k-point grid
   CSHIFT  =0.1000    complex shift for real part using Kramers Kronig
   OMEGAMAX=  -1.0    maximum frequency
   DEG_THRESHOLD= 0.2000000E-02 threshold for treating states as degnerate
   RTIME   =   -0.100 relaxation time in fs
  (WPLASMAI=    0.000 imaginary part of plasma frequency in eV, 0.658/RTIME)
   DFIELD  = 0.0000000 0.0000000 0.0000000 field for delta impulse in time
 
  Optional k-point grid parameters
   LKPOINTS_OPT  =     F    use optional k-point grid
   KPOINTS_OPT_MODE=     1    mode for optional k-point grid
 
 Orbital magnetization related:
   ORBITALMAG=     F  switch on orbital magnetization
   LCHIMAG   =     F  perturbation theory with respect to B field
   DQ        =  0.001000  dq finite difference perturbation B field
   LLRAUG    =     F  two centre corrections for induced B field
   LBONE     =     F  B-component reconstruction in AE one-centre
   LVGVCALC  =     T  calculate vGv susceptibility
   LVGVAPPL  =     F  apply vGv susceptibility instead of pGv for G=0

 Random number generation:
   RANDOM_GENERATOR = DEFAULT
   PCG_SEED         = not used


--------------------------------------------------------------------------------------------------------


 conjugate gradient relaxation of ions
 charge density and potential will be updated during run
 non-spin polarized calculation
 Variant of blocked Davidson
 Davidson routine will perform the subspace rotation
 perform sub-space diagonalisation
    after iterative eigenvector-optimisation
 modified Broyden-mixing scheme, WC =      100.0
 initial mixing is a Kerker type mixing with AMIX =  0.4000 and BMIX =      1.0000
 Hartree-type preconditioning will be used
 using additional bands           138
 reciprocal scheme for non local part
 use partial core corrections
 calculate Harris-corrections to forces 
   (improved forces if not selfconsistent)
 use gradient corrections 
 use of overlap-Matrix (Vanderbilt PP)
 Methfessel and Paxton  Order N= 1 SIGMA  =   0.20


--------------------------------------------------------------------------------------------------------


  energy-cutoff  :      520.00
  volume of cell :     1689.36
      direct lattice vectors                 reciprocal lattice vectors
    12.995147041 -0.013548323  0.022358575     0.076899476  0.027363571  0.046994778
    -4.344442071 12.248515902 -0.022934774     0.000004010  0.081732338  0.047195846
    -4.307105760 -6.130942661 10.617746937    -0.000161924  0.000118924  0.094184924

  length of vectors
    12.995173338 12.996185776 12.995236356     0.094184943  0.094380205  0.094185138


 
 k-points in units of 2pi/SCALE and weight: KPOINTS created by Atomic Simulation Env
   0.00000000  0.00000000  0.00000000       0.016
   0.01922487  0.00684089  0.01174869       0.031
   0.00004048 -0.00002973 -0.02354623       0.031
   0.03844974  0.01368179  0.02349739       0.016
  -0.00008096  0.00005946  0.04709246       0.016
   0.00000100  0.02043308  0.01179896       0.031
   0.01922587  0.02727398  0.02354766       0.031
   0.00003948 -0.02046282 -0.03534519       0.031
   0.03845074  0.03411487  0.03529635       0.031
  -0.00008196 -0.02037362  0.03529350       0.031
  -0.01922387  0.01359219  0.00005027       0.031
  -0.00004148 -0.02040335  0.01174727       0.031
   0.00000200  0.04086617  0.02359792       0.016
   0.01922687  0.04770706  0.03534662       0.031
   0.00004249  0.04083644  0.00005169       0.031
   0.03845174  0.05454795  0.04709531       0.016
  -0.00007896  0.04092563  0.07069039       0.016
   0.01918439  0.00687062  0.03529493       0.031
   0.03840926  0.01371152  0.04704362       0.031
  -0.01930583 -0.00678143  0.03534377       0.031
  -0.01926535 -0.00681116  0.01179754       0.031
   0.01918539  0.02730371  0.04709389       0.031
   0.03841026  0.03414460  0.05884258       0.031
  -0.01930683 -0.02721452  0.02354481       0.031
  -0.01926435  0.01362192  0.02359650       0.031
  -0.01926635 -0.02724425 -0.00000142       0.031
   0.01918639  0.04773679  0.05889285       0.031
   0.03841126  0.05457769  0.07064154       0.031
  -0.01930383  0.03408474  0.05894169       0.031
  -0.01926335  0.03405501  0.03539546       0.031
   0.01918339 -0.01356246  0.02349596       0.031
   0.03840825 -0.00672157  0.03524466       0.031
  -0.01930483  0.01365165  0.04714273       0.031
   0.03836878  0.01374125  0.07058985       0.016
   0.03836978  0.03417433  0.08238881       0.031
   0.03837078  0.05460742  0.09418777       0.016
 
 k-points in reciprocal lattice and weights: KPOINTS created by Atomic Simulation Env
   0.00000000  0.00000000  0.00000000       0.016
   0.25000000  0.00000000  0.00000000       0.031
   0.00000000  0.00000000 -0.25000000       0.031
   0.50000000  0.00000000  0.00000000       0.016
   0.00000000  0.00000000  0.50000000       0.016
   0.00000000  0.25000000  0.00000000       0.031
   0.25000000  0.25000000  0.00000000       0.031
   0.00000000 -0.25000000 -0.25000000       0.031
   0.50000000  0.25000000  0.00000000       0.031
   0.00000000 -0.25000000  0.50000000       0.031
  -0.25000000  0.25000000  0.00000000       0.031
   0.00000000 -0.25000000  0.25000000       0.031
   0.00000000  0.50000000  0.00000000       0.016
   0.25000000  0.50000000  0.00000000       0.031
   0.00000000  0.50000000 -0.25000000       0.031
   0.50000000  0.50000000  0.00000000       0.016
   0.00000000  0.50000000  0.50000000       0.016
   0.25000000  0.00000000  0.25000000       0.031
   0.50000000  0.00000000  0.25000000       0.031
  -0.25000000  0.00000000  0.50000000       0.031
  -0.25000000  0.00000000  0.25000000       0.031
   0.25000000  0.25000000  0.25000000       0.031
   0.50000000  0.25000000  0.25000000       0.031
  -0.25000000 -0.25000000  0.50000000       0.031
  -0.25000000  0.25000000  0.25000000       0.031
  -0.25000000 -0.25000000  0.25000000       0.031
   0.25000000  0.50000000  0.25000000       0.031
   0.50000000  0.50000000  0.25000000       0.031
  -0.25000000  0.50000000  0.50000000       0.031
  -0.25000000  0.50000000  0.25000000       0.031
   0.25000000 -0.25000000  0.25000000       0.031
   0.50000000 -0.25000000  0.25000000       0.031
  -0.25000000  0.25000000  0.50000000       0.031
   0.50000000  0.00000000  0.50000000       0.016
   0.50000000  0.25000000  0.50000000       0.031
   0.50000000  0.50000000  0.50000000       0.016
 
 position of ions in fractional coordinates (direct lattice) 
   0.00884265  0.00599492  0.00981562
   0.99927655  0.00485126  0.20271145
   0.00723648  0.00095551  0.40115291
   0.00401931  0.00098542  0.59831834
   0.00148937  0.00353683  0.80483721
   0.00580291  0.20277834  0.20091936
   0.00305941  0.19915335  0.39811357
   0.00485081  0.19940405  0.60139170
   0.00117848  0.39706558  0.19780941
   0.00461780  0.40171702  0.40129795
   0.00307705  0.39953379  0.60108933
   0.00869745  0.40167960  0.80966687
   0.00644197  0.60557485  0.01129286
   0.00009775  0.59711556  0.20449842
   0.00256638  0.59810341  0.40189976
   0.00434442  0.60297638  0.60259036
   0.00343610  0.60168194  0.80489323
   0.99248904  0.79425614  0.21958463
   0.99256969  0.79230659  0.40544373
   0.00295092  0.80264961  0.60302743
   0.00398983  0.80478142  0.80741972
   0.20468672  0.00508307  0.00201550
   0.22529624  0.02445254  0.21950309
   0.02910214  0.82875532  0.05660114
   0.20113237  0.00210597  0.59831255
   0.19912848  0.99993560  0.80055932
   0.19992570  0.20107154  0.00296028
   0.20573562  0.20624163  0.20330586
   0.20168752  0.19585870  0.40030644
   0.20051728  0.20682700  0.60512181
   0.19539689  0.20066888  0.80266591
   0.19597383  0.39688097  0.99850069
   0.20109465  0.39755683  0.20013019
   0.20213472  0.40143764  0.40146629
   0.20096120  0.40121689  0.59851950
   0.20116434  0.40401303  0.80103418
   0.20224099  0.60277194  0.00049405
   0.19646890  0.59249160  0.19598470
   0.20144847  0.59972677  0.40118685
   0.20282745  0.60163826  0.60187284
   0.19956926  0.60218597  0.80127818
   0.20142938  0.80520954  0.00436314
   0.20599394  0.79995082  0.20289530
   0.19852311  0.80269156  0.39994840
   0.20148571  0.80115842  0.59943503
   0.19916997  0.80087092  0.80160459
   0.39955935  0.99995348  0.99669124
   0.40772482  0.00376755  0.19784377
   0.39351984  0.99886162  0.39564892
   0.39249368  0.99565435  0.59977409
   0.40053397  0.00129172  0.80024645
   0.40002024  0.20170068  0.99856863
   0.40634042  0.20738051  0.19695149
   0.41269718  0.21584293  0.40175783
   0.38784719  0.19512734  0.59263736
   0.39479466  0.20134080  0.80118793
   0.39847174  0.40153211  0.99949987
   0.40167532  0.40394098  0.19964720
   0.40161833  0.40675904  0.40132707
   0.39831751  0.40026291  0.59882800
   0.40100440  0.40320801  0.80121721
   0.40007985  0.60084015  0.99918767
   0.40044594  0.59851577  0.19873363
   0.40025304  0.60082733  0.40090904
   0.40096854  0.60205190  0.60143766
   0.40130201  0.60274291  0.80148183
   0.39982050  0.80002386  0.99840569
   0.40313506  0.80004438  0.19932245
   0.39368706  0.79389393  0.39350208
   0.40091047  0.80142286  0.59957321
   0.40066614  0.80061404  0.79958428
   0.59941815  0.99844535  0.99813774
   0.60252923  0.00119359  0.19804726
   0.59622202  0.99533491  0.39010603
   0.61006478  0.00107735  0.80892628
   0.60393735  0.19938238  0.00202676
   0.60303354  0.20282148  0.19907413
   0.60556090  0.20308905  0.39743727
   0.57674190  0.19745823  0.57817478
   0.59854547  0.39727191  0.99813602
   0.60028491  0.40158601  0.19964299
   0.60666858  0.40930479  0.40267329
   0.60335635  0.40785872  0.60250108
   0.59494395  0.40760684  0.79949506
   0.59935095  0.60097698  0.00018202
   0.59783744  0.59956739  0.20024344
   0.60102317  0.60485695  0.40266681
   0.60179993  0.60326106  0.60192528
   0.60617702  0.60567211  0.80409034
   0.60199998  0.80128606  0.00000635
   0.60094152  0.80038223  0.20032691
   0.60182107  0.80255713  0.40362147
   0.60439013  0.80208836  0.60538384
   0.60245650  0.80018173  0.80255463
   0.80483356  0.00402217  0.00067344
   0.80069162  0.00135794  0.20021468
   0.80400378  0.00358678  0.40379432
   0.81080819  0.00254904  0.61088760
   0.80316337  0.20091260  0.19475792
   0.80500938  0.20156691  0.39675122
   0.80976934  0.39930939  0.00813193
   0.80074878  0.39922904  0.20293690
   0.80571472  0.40303948  0.40295262
   0.80452950  0.40856320  0.59621709
   0.80015898  0.59842500  0.00315079
   0.79305891  0.59303982  0.19881332
   0.79989546  0.60027996  0.40319597
   0.80572097  0.60726638  0.60539235
   0.81413011  0.61889035  0.81345048
   0.80601204  0.80423595  0.00794930
   0.79547926  0.79982711  0.20257858
   0.79854295  0.80259625  0.40200083
   0.80347360  0.80302288  0.60166650
   0.80473586  0.81191138  0.80553137
   0.00421095  0.19993139  0.00391714
   0.00885157  0.20052168  0.80471036
   0.00935579  0.40467060  0.00858392
   0.80760504  0.99851677  0.80734679
   0.80526281  0.19995186  0.00711369
   0.59637568  0.00206517  0.59716843
   0.59866482  0.20261167  0.79637531
   0.79916404  0.20057627  0.59875528
   0.82013860  0.20134390  0.81944698
   0.80108964  0.40575335  0.79987258
 
 position of ions in cartesian coordinates  (Angst):
   0.04659000  0.01313000  0.10428000
  12.09157000 -1.19693000  2.17457000
  -1.63792000 -2.44784000  4.25948000
  -2.52907000 -3.65624000  6.35286000
  -3.46253000 -4.89111000  8.54551000
  -1.67093000  1.25183000  2.12879000
  -2.54017000 -0.00152000  4.22257000
  -3.39352000 -1.24476000  6.38096000
  -2.56170000  3.65069000  2.09121000
  -3.41366000  2.46004000  4.25177000
  -4.28472000  1.20841000  6.37312000
  -5.11937000 -0.04416000  8.58782000
  -2.59581000  7.34807000  0.10616000
  -3.47366000  6.06001000  2.15762000
  -4.29610000  4.86182000  4.25361000
  -5.15856000  3.69106000  6.38442000
  -6.03608000  2.43491000  8.53243000
   8.50116704  8.36875168  2.33546857
   7.71017000  7.20538000  4.30892000
  -6.04602000  6.13410000  6.38445000
  -6.92212000  4.90708000  8.55461000
   2.62917000  0.04713000  0.02586000
   1.87610207 -1.04930590  2.33510477
  -3.46608000  9.80361000  0.58262000
   0.02760000 -3.64515000  6.35718000
  -5.20455207  7.33684590  8.48165523
   1.71177000  2.44197000  0.03129000
   0.90190000  1.27691000  2.15852000
   0.04590000 -0.05801000  4.25037000
  -0.89912000 -1.17936000  6.42477000
  -1.78975000 -2.46585000  8.52227000
  -3.47816576 -1.26320266 10.59710694
   0.02411000  3.63977000  2.12031000
  -0.84641000  2.45291000  4.25798000
  -1.70943000  1.24210000  6.35022000
  -2.59119000  0.03474000  8.50041000
   0.00731576  7.37729266 -0.00405694
  -0.86503000  6.05291000  2.07172000
  -1.71558000  4.88338000  4.25045000
  -2.57034000  3.67638000  6.38127000
  -3.47392000  2.46059000  8.49842000
  -0.89937424  9.83314266  0.03236306
  -1.67231000  8.55148000  2.14055000
  -2.63003000  7.37703000  4.23258000
  -3.44408000  6.13517000  6.35078000
  -4.34369000  4.89219000  8.49732000
  -3.44476207  6.13187590 10.56861523
   4.42994207 -1.17234590  2.10968477
  -0.92975000  9.80354000  4.18679000
  -1.80834000  8.51279000  6.35419000
   1.75264000 -4.89587000  8.50574000
   0.02110424 -3.65705266 10.60686694
   3.53121000  1.32710000  2.09551000
   2.69493000  0.17501000  4.27004000
   1.63986000 -1.24866000  6.29667000
   0.80490000 -2.45126000  8.51102000
  -0.87118576 -1.21510266 10.61213694
   2.60503000  3.71821000  2.11952000
   1.72339000  2.51624000  4.26084000
   0.85806000  1.22585000  6.35793000
   0.00847000  0.02105000  8.50684000
  -1.71482576  1.22801734 10.60428694
   1.74767000  6.10708000  2.10533000
   0.86433000  4.89587000  4.25192000
   0.00461000  3.68143000  6.38107000
  -0.85567000  2.46343000  8.50508000
  -2.58017000  3.67252000 10.59141000
   0.90455000  8.57186000  2.10702000
  -0.02786000  7.30615000  4.16870000
  -0.85427000  6.13486000  6.35670000
  -1.71540000  4.89870000  8.48038000
  -0.84724576  6.10182734 10.58847694
   6.97176000 -1.20776000  2.11626000
   1.74359000  9.79158000  4.13255000
   4.43907000 -4.95455000  8.60259000
   6.97332000  2.42153000  0.03045000
   6.09793000  1.25558000  2.12255000
   5.27524000  0.04267000  4.22877000
   4.14674000 -1.13400000  6.14728000
   1.75318424 -1.26163266 10.60222694
   5.19624000  3.68670000  2.12397000
   4.37119000  2.53639000  4.27966000
   3.47375000  1.29359000  6.40134000
   2.51705000  0.08286000  8.49279000
   5.17696000  7.35184000  0.00155000
   4.30173000  6.10803000  2.12575000
   3.44829000  4.93173000  4.27498000
   2.60709000  3.69053000  6.39071000
   1.78275000  2.48054000  8.53729000
   4.34191000  9.80637000 -0.00485000
   3.46928000  8.56716000  2.12210000
   2.59565000  7.34740000  4.28060000
   1.76206000  6.10463000  6.42293000
   0.89598000  4.87246000  8.51644000
  10.43855576  0.03423266  0.02505306
   9.53686000 -1.22172000  2.14370000
   8.69338000 -2.44260000  4.30528000
   7.89434000 -3.72508000  6.50432000
   8.72553000  1.25595000  2.08124000
   7.87667000  0.02553000  4.22598000
   8.75327000  4.83012000  0.09529000
   7.79735000  3.63492000  2.16348000
   6.98384000  2.45524000  4.28722000
   6.11203000  1.33802000  6.33910000
   7.78479000  7.29966000  0.03762000
   6.87318000  6.03420000  2.11508000
   6.05027000  4.86973000  4.28515000
   5.22474000  3.71557000  6.43199000
   4.38739000  2.58224000  8.64102000
   6.94605000  9.79104000  0.08398000
   5.99004000  8.54392000  2.15037000
   5.15889000  7.35515000  4.26779000
   4.36113000  6.13617000  6.38789000
   3.46085000  4.99514000  8.55230000
  -0.83074000  2.42479000  0.03710000
  -4.22210000 -2.47766000  8.53981000
  -1.67346000  4.90386000  0.08207000
   2.67962000  7.26961000  8.56736000
   9.56519000  2.39459000  0.08895000
   5.16895000 -3.64399000  6.35387000
   3.46943000 -2.40895000  8.46445000
   6.93496000 -1.22500000  6.37070000
   6.25365000 -2.56893000  8.71440000
   5.20237000  0.05505000  8.50145000
 


--------------------------------------------------------------------------------------------------------


 k-point   1 :   0.0000 0.0000 0.0000  plane waves:   45567
 k-point   2 :   0.2500 0.0000 0.0000  plane waves:   45468
 k-point   3 :   0.0000 0.0000-0.2500  plane waves:   45468
 k-point   4 :   0.5000 0.0000 0.0000  plane waves:   45464
 k-point   5 :   0.0000 0.0000 0.5000  plane waves:   45464
 k-point   6 :   0.0000 0.2500 0.0000  plane waves:   45468
 k-point   7 :   0.2500 0.2500 0.0000  plane waves:   45502
 k-point   8 :   0.0000-0.2500-0.2500  plane waves:   45502
 k-point   9 :   0.5000 0.2500 0.0000  plane waves:   45494
 k-point  10 :   0.0000-0.2500 0.5000  plane waves:   45494
 k-point  11 :  -0.2500 0.2500 0.0000  plane waves:   45469
 k-point  12 :   0.0000-0.2500 0.2500  plane waves:   45470
 k-point  13 :   0.0000 0.5000 0.0000  plane waves:   45472
 k-point  14 :   0.2500 0.5000 0.0000  plane waves:   45502
 k-point  15 :   0.0000 0.5000-0.2500  plane waves:   45502
 k-point  16 :   0.5000 0.5000 0.0000  plane waves:   45470
 k-point  17 :   0.0000 0.5000 0.5000  plane waves:   45470
 k-point  18 :   0.2500 0.0000 0.2500  plane waves:   45497
 k-point  19 :   0.5000 0.0000 0.2500  plane waves:   45499
 k-point  20 :  -0.2500 0.0000 0.5000  plane waves:   45499
 k-point  21 :  -0.2500 0.0000 0.2500  plane waves:   45470
 k-point  22 :   0.2500 0.2500 0.2500  plane waves:   45516
 k-point  23 :   0.5000 0.2500 0.2500  plane waves:   45501
 k-point  24 :  -0.2500-0.2500 0.5000  plane waves:   45501
 k-point  25 :  -0.2500 0.2500 0.2500  plane waves:   45454
 k-point  26 :  -0.2500-0.2500 0.2500  plane waves:   45454
 k-point  27 :   0.2500 0.5000 0.2500  plane waves:   45493
 k-point  28 :   0.5000 0.5000 0.2500  plane waves:   45500
 k-point  29 :  -0.2500 0.5000 0.5000  plane waves:   45500
 k-point  30 :  -0.2500 0.5000 0.2500  plane waves:   45488
 k-point  31 :   0.2500-0.2500 0.2500  plane waves:   45479
 k-point  32 :   0.5000-0.2500 0.2500  plane waves:   45499
 k-point  33 :  -0.2500 0.2500 0.5000  plane waves:   45499
 k-point  34 :   0.5000 0.0000 0.5000  plane waves:   45474
 k-point  35 :   0.5000 0.2500 0.5000  plane waves:   45488
 k-point  36 :   0.5000 0.5000 0.5000  plane waves:   45516

 maximum and minimum number of plane-waves per node :     45567    45454

 maximum number of plane-waves:     45567
 maximum index in each direction: 
   IXMAX=   24   IYMAX=   24   IZMAX=   24
   IXMIN=  -24   IYMIN=  -24   IZMIN=  -24


 serial   3D FFT for wavefunctions
 parallel 3D FFT for charge:
    minimum data exchange during FFTs selected (reduces bandwidth)


 total amount of memory used by VASP MPI-rank0  6702056. kBytes
=======================================================================

   base      :      30000. kBytes
   nonl-proj :     799080. kBytes
   fftplans  :      67629. kBytes
   grid      :     159195. kBytes
   one-center:       1928. kBytes
   wavefun   :    5644224. kBytes
 
     INWAV:  cpu time      0.0001: real time      0.0001
 Broyden mixing: mesh for mixing (old mesh)
   NGX = 49   NGY = 49   NGZ = 49
  (NGX  =196   NGY  =196   NGZ  =196)
  gives a total of 117649 points

 initial charge density was supplied:
 charge density of overlapping atoms calculated
 number of electron    1364.0000000 magnetization 
 keeping initial charge density in first step


--------------------------------------------------------------------------------------------------------


 Maximum index for augmentation-charges          5255 (set IRDMAX)


--------------------------------------------------------------------------------------------------------


 First call to EWALD:  gamma=   0.149
 Maximum number of real-space cells 3x 3x 3
 Maximum number of reciprocal cells 3x 3x 3

    FEWALD:  cpu time      0.2555: real time      0.0454


--------------------------------------- Ionic step        1  -------------------------------------------




--------------------------------------- Iteration      1(   1)  ---------------------------------------


    POTLOK:  cpu time      0.2471: real time      0.3050
    SETDIJ:  cpu time      0.3065: real time      0.0399
     EDDAV:  cpu time     90.4688: real time     91.2633
       DOS:  cpu time      0.0554: real time      0.0557
    --------------------------------------------
      LOOP:  cpu time     91.0778: real time     91.6639

 eigenvalue-minimisations  : 59040
 total energy-change (2. order) : 0.2324082E+05  (-0.7101887E+05)
 number of electron    1364.0000000 magnetization 
 augmentation part     1364.0000000 magnetization 

 Free energy of the ion-electron system (eV)
  ---------------------------------------------------
  alpha Z        PSCENC =     12315.99909697
  Ewald energy   TEWEN  =   -129751.52937565
  -Hartree energ DENC   =    -36232.99550088
  -exchange      EXHF   =         0.00000000
  -V(xc)+E(xc)   XCENC  =      3691.78313109
  PAW double counting   =    134689.96621064  -132185.80545990
  entropy T*S    EENTRO =        -0.00579705
  eigenvalues    EBANDS =      6596.71985622
  atomic energy  EATOM  =    164116.68312662
  Solvation  Ediel_sol  =         0.00000000
  ---------------------------------------------------
  free energy    TOTEN  =     23240.81528805 eV

  energy without entropy =    23240.82108509  energy(sigma->0) =    23240.81722039


--------------------------------------------------------------------------------------------------------




--------------------------------------- Iteration      1(   2)  ---------------------------------------


     EDDAV:  cpu time     89.8034: real time     90.2850
       DOS:  cpu time      0.0631: real time      0.0634
    --------------------------------------------
      LOOP:  cpu time     89.8665: real time     90.3485

 eigenvalue-minimisations  : 59232
 total energy-change (2. order) :-0.2295493E+05  (-0.2261247E+05)
 number of electron    1364.0000000 magnetization 
 augmentation part     1364.0000000 magnetization 

 Free energy of the ion-electron system (eV)
  ---------------------------------------------------
  alpha Z        PSCENC =     12315.99909697
  Ewald energy   TEWEN  =   -129751.52937565
  -Hartree energ DENC   =    -36232.99550088
  -exchange      EXHF   =         0.00000000
  -V(xc)+E(xc)   XCENC  =      3691.78313109
  PAW double counting   =    134689.96621064  -132185.80545990
  entropy T*S    EENTRO =         0.00102039
  eigenvalues    EBANDS =    -16358.21246395
  atomic energy  EATOM  =    164116.68312662
  Solvation  Ediel_sol  =         0.00000000
  ---------------------------------------------------
  free energy    TOTEN  =       285.88978532 eV

  energy without entropy =      285.88876493  energy(sigma->0) =      285.88944519


--------------------------------------------------------------------------------------------------------




--------------------------------------- Iteration      1(   3)  ---------------------------------------


     EDDAV:  cpu time    118.9140: real time    119.7265
       DOS:  cpu time      0.0670: real time      0.0674
    --------------------------------------------
      LOOP:  cpu time    118.9810: real time    119.7939

 eigenvalue-minimisations  : 85840
 total energy-change (2. order) :-0.1477966E+04  (-0.1409031E+04)
 number of electron    1364.0000000 magnetization 
 augmentation part     1364.0000000 magnetization 

 Free energy of the ion-electron system (eV)
[...]
   -.602E+02 0.142E+03 -.108E+02   0.600E+02 -.143E+03 0.103E+02   0.260E+00 0.238E+00 0.590E+00   -.456E-02 0.127E-02 -.264E-02
   0.690E+01 0.550E+01 0.136E+02   -.699E+01 -.538E+01 -.138E+02   0.114E+00 -.120E+00 0.230E+00   -.241E-02 0.381E-02 -.153E-03
   0.935E+02 -.776E+02 0.152E+03   -.927E+02 0.777E+02 -.152E+03   -.816E+00 -.128E+00 0.371E+00   -.259E-02 0.298E-02 0.521E-03
   0.121E+03 -.110E+03 0.125E+03   -.121E+03 0.110E+03 -.124E+03   -.531E-01 -.672E+00 -.694E+00   0.590E-03 -.807E-03 -.462E-03
   0.100E+03 -.591E+02 0.142E+03   -.100E+03 0.584E+02 -.143E+03   -.386E-01 0.660E+00 0.324E+00   -.446E-02 0.307E-02 -.284E-02
   0.114E+03 -.762E+02 0.127E+03   -.115E+03 0.758E+02 -.126E+03   0.650E+00 0.473E+00 -.691E+00   -.188E-02 0.106E-02 -.829E-03
   0.339E+02 -.125E+03 -.285E+02   -.337E+02 0.124E+03 0.284E+02   -.164E+00 0.257E+00 0.106E+00   0.207E-02 -.137E-02 0.111E-02
   -.704E+02 -.618E+02 0.110E+03   0.701E+02 0.616E+02 -.110E+03   0.242E+00 0.224E+00 -.168E+00   0.288E-02 -.571E-03 0.200E-02
   0.137E+03 0.198E+02 -.454E+02   -.137E+03 -.195E+02 0.450E+02   -.927E-01 -.269E+00 0.372E+00   0.114E-03 -.647E-03 0.626E-03
   0.198E+03 -.143E+03 0.243E+03   -.198E+03 0.143E+03 -.242E+03   -.143E+00 0.101E+00 -.174E+00   -.112E-02 -.368E-04 -.202E-03
   0.355E+02 0.819E+02 0.861E+02   -.357E+02 -.818E+02 -.860E+02   0.158E+00 -.214E+00 -.582E-01   0.798E-03 -.322E-02 -.384E-03
 -----------------------------------------------------------------------------------------------
   0.988E+00 -.760E+00 0.217E+00   0.116E-11 0.114E-11 -.190E-11   -.971E+00 0.756E+00 -.210E+00   -.621E-02 0.602E-02 -.117E-02
 
 
 POSITION                                       TOTAL-FORCE (eV/Angst)
 -----------------------------------------------------------------------------------
      0.04659      0.01313      0.10428        -0.065112      0.118617      0.069181
     12.09157     -1.19693      2.17457         0.112985     -0.055800      0.003584
     -1.63792     -2.44784      4.25948        -0.060119      0.052888      0.045673
     -2.52907     -3.65624      6.35286         0.001895     -0.018906      0.006380
     -3.46253     -4.89111      8.54551         0.028168     -0.005344      0.008947
     -1.67093      1.25183      2.12879         0.011679     -0.015708      0.039334
     -2.54017     -0.00152      4.22257        -0.011385      0.000570     -0.004586
     -3.39352     -1.24476      6.38096        -0.017128      0.001761      0.012958
     -2.56170      3.65069      2.09121        -0.003090      0.007661      0.003324
     -3.41366      2.46004      4.25177        -0.012579      0.008129     -0.010836
     -4.28472      1.20841      6.37312        -0.027413      0.009011      0.021187
     -5.11937     -0.04416      8.58782        -0.004570      0.029635      0.004923
     -2.59581      7.34807      0.10616         0.043962     -0.081970      0.060462
     -3.47366      6.06001      2.15762        -0.065918      0.116854      0.040465
     -4.29610      4.86182      4.25361        -0.011782      0.023005     -0.018794
     -5.15856      3.69106      6.38442        -0.019975     -0.001824      0.027897
     -6.03608      2.43491      8.53243        -0.071126      0.059996      0.122097
      8.50117      8.36875      2.33547         0.511274      0.624897      0.086575
      7.71017      7.20538      4.30892         0.035154      0.059120     -0.151860
     -6.04602      6.13410      6.38445         0.004102      0.008526     -0.008968
     -6.92212      4.90708      8.55461         0.060613      0.060177      0.019718
      2.62917      0.04713      0.02586        -0.077967     -0.132361      0.112908
      1.87610     -1.04931      2.33510        -0.477273     -0.562026      0.051044
     -3.46608      9.80361      0.58262         0.008264      0.053431     -1.762046
      0.02760     -3.64515      6.35718        -0.001282      0.006273     -0.052073
     -5.20455      7.33685      8.48166         0.002105      0.001847      0.014504
      1.71177      2.44197      0.03129         0.015003     -0.028505      0.029245
      0.90190      1.27691      2.15852         0.054245     -0.123680      0.057001
      0.04590     -0.05801      4.25037        -0.075212      0.046595      0.074657
     -0.89912     -1.17936      6.42477        -0.015666      0.004534      0.038256
     -1.78975     -2.46585      8.52227         0.012858     -0.013476      0.003399
     -3.47817     -1.26320     10.59711         0.002874      0.003942      0.019014
      0.02411      3.63977      2.12031         0.006412      0.000922      0.000552
     -0.84641      2.45291      4.25798         0.002103      0.022707     -0.000609
     -1.70943      1.24210      6.35022        -0.011660      0.005801      0.016650
     -2.59119      0.03474      8.50041         0.002476     -0.003682      0.019633
      0.00732      7.37729     -0.00406         0.030790     -0.014283      0.027090
     -0.86503      6.05291      2.07172        -0.012935      0.029429      0.049861
     -1.71558      4.88338      4.25045        -0.009738     -0.021313     -0.003242
     -2.57034      3.67638      6.38127        -0.013177      0.004461      0.006252
     -3.47392      2.46059      8.49842        -0.007292     -0.005685      0.000725
     -0.89937      9.83314      0.03236         0.145859     -0.033944      0.083736
     -1.67231      8.55148      2.14055        -0.141488      0.045486     -0.003621
     -2.63003      7.37703      4.23258         0.066121     -0.070820      0.069130
     -3.44408      6.13517      6.35078        -0.015414      0.002384      0.000067
     -4.34369      4.89219      8.49732        -0.005477      0.028086     -0.002234
     -3.44476      6.13188     10.56862        -0.039649     -0.003125      0.035035
      4.42994     -1.17235      2.10968        -0.176396      0.004625      0.053534
     -0.92975      9.80354      4.18679         0.053986     -0.068734      0.040233
     -1.80834      8.51279      6.35419         0.013570     -0.006188      0.042846
      1.75264     -4.89587      8.50574        -0.015108      0.020780      0.002973
      0.02110     -3.65705     10.60687        -0.024086     -0.032510      0.025021
      3.53121      1.32710      2.09551        -0.066173     -0.117801     -0.021787
      2.69493      0.17501      4.27004        -0.030708     -0.071721     -0.122140
      1.63986     -1.24866      6.29667        -0.007901     -0.004184     -0.049796
      0.80490     -2.45126      8.51102        -0.003504     -0.003256     -0.006828
     -0.87119     -1.21510     10.61214         0.011835     -0.014877      0.016910
      2.60503      3.71821      2.11952         0.008399     -0.033020      0.001032
      1.72339      2.51624      4.26084         0.013167     -0.024752     -0.012548
      0.85806      1.22585      6.35793         0.014842      0.001710      0.006778
      0.00847      0.02105      8.50684         0.016796     -0.017613      0.000238
     -1.71483      1.22802     10.60429         0.007789      0.001681      0.012122
      1.74767      6.10708      2.10533        -0.000585      0.006415     -0.006777
      0.86433      4.89587      4.25192         0.014034      0.000509     -0.008111
      0.00461      3.68143      6.38107         0.005164     -0.006242      0.007862
     -0.85567      2.46343      8.50508         0.017766     -0.003301      0.010301
     -2.58017      3.67252     10.59141         0.011740      0.002484      0.032560
      0.90455      8.57186      2.10702        -0.024750      0.018684      0.021334
     -0.02786      7.30615      4.16870         0.007177     -0.007113     -0.002772
     -0.85427      6.13486      6.35670         0.004169     -0.008511      0.017028
     -1.71540      4.89870      8.48038        -0.019006      0.002814      0.013704
     -0.84725      6.10183     10.58848        -0.005029     -0.001754      0.017627
      6.97176     -1.20776      2.11626        -0.004365     -0.006197      0.005179
      1.74359      9.79158      4.13255         0.017954      0.017951     -0.017723
      4.43907     -4.95455      8.60259        -0.007570      0.000201      0.010621
      6.97332      2.42153      0.03045        -0.018498      0.012801      0.020495
      6.09793      1.25558      2.12255        -0.031125     -0.005120     -0.000843
      5.27524      0.04267      4.22877        -0.020961      0.005733     -0.024593
      4.14674     -1.13400      6.14728        -0.021975      0.018161     -0.021411
      1.75318     -1.26163     10.60223         0.035097      0.038060      0.026591
      5.19624      3.68670      2.12397         0.000716      0.010694     -0.003800
      4.37119      2.53639      4.27966         0.001108     -0.003872     -0.013715
      3.47375      1.29359      6.40134         0.001615     -0.004200      0.002684
      2.51705      0.08286      8.49279        -0.007935      0.007133      0.030762
      5.17696      7.35184      0.00155         0.044700     -0.000717      0.035934
      4.30173      6.10803      2.12575         0.029386      0.005921     -0.001386
      3.44829      4.93173      4.27498         0.021123     -0.014525     -0.011339
      2.60709      3.69053      6.39071         0.018228      0.000566      0.026231
      1.78275      2.48054      8.53729        -0.007174     -0.023504      0.001401
      4.34191      9.80637     -0.00485        -0.013110     -0.012712      0.033783
      3.46928      8.56716      2.12210         0.009290     -0.009189      0.004922
      2.59565      7.34740      4.28060         0.008563     -0.010211     -0.013373
      1.76206      6.10463      6.42293         0.025462     -0.017702      0.014225
      0.89598      4.87246      8.51644         0.008151      0.003362      0.002027
     10.43856      0.03423      0.02505        -0.029235      0.011939      0.034627
      9.53686     -1.22172      2.14370         0.036476     -0.023971      0.035270
      8.69338     -2.44260      4.30528        -0.010905     -0.016250     -0.014321
      7.89434     -3.72508      6.50432         0.005522     -0.014437      0.007802
      8.72553      1.25595      2.08124         0.002036     -0.005933     -0.000325
      7.87667      0.02553      4.22598        -0.005755      0.006839     -0.006721
      8.75327      4.83012      0.09529        -0.026739      0.044687      0.029521
      7.79735      3.63492      2.16348        -0.007145      0.038106     -0.003600
      6.98384      2.45524      4.28722        -0.013063      0.021218     -0.011541
      6.11203      1.33802      6.33910        -0.000498      0.029141      0.036482
      7.78479      7.29966      0.03762         0.079206      0.134472      0.138653
      6.87318      6.03420      2.11508         0.078024      0.133190     -0.024933
      6.05027      4.86973      4.28515         0.002233      0.008946     -0.006880
      5.22474      3.71557      6.43199         0.006378      0.006912      0.028491
      4.38739      2.58224      8.64102        -0.101375     -0.123154     -0.060559
      6.94605      9.79104      0.08398        -0.101990      0.017658      0.069575
      5.99004      8.54392      2.15037         0.184726     -0.024489      0.038909
      5.15889      7.35515      4.26779         0.027673     -0.001866     -0.025316
      4.36113      6.13617      6.38789         0.010435     -0.021773      0.024444
      3.46085      4.99514      8.55230         0.074273     -0.063998      0.115363
     -0.83074      2.42479      0.03710         0.015822      0.002710      0.032561
     -4.22210     -2.47766      8.53981         0.001888     -0.009935      0.018846
     -1.67346      4.90386      0.08207        -0.011689      0.012315      0.030939
      2.67962      7.26961      8.56736        -0.000688     -0.028115      0.000334
      9.56519      2.39459      0.08895        -0.000690     -0.004868      0.020005
      5.16895     -3.64399      6.35387         0.023499     -0.013390      0.006514
      3.46943     -2.40895      8.46445        -0.007134      0.011615      0.003263
      6.93496     -1.22500      6.37070        -0.007277      0.009981      0.013438
      6.25365     -2.56893      8.71440        -0.000261     -0.002774      0.016116
      5.20237      0.05505      8.50145        -0.024123     -0.029828     -0.007566
 -----------------------------------------------------------------------------------
    total drift:                                0.010741      0.002250      0.005793


--------------------------------------------------------------------------------------------------------



  FREE ENERGIE OF THE ION-ELECTRON SYSTEM (eV)
  ---------------------------------------------------
  free  energy   TOTEN  =     -1103.58556192 eV

  energy  without entropy=    -1103.58392874  energy(sigma->0) =    -1103.58501752
 


--------------------------------------------------------------------------------------------------------


    POTLOK:  cpu time      0.4538: real time      0.1657


--------------------------------------------------------------------------------------------------------




--------------------------------------------------------------------------------------------------------


     LOOP+:  cpu time   4164.6453: real time   4162.5586
    4ORBIT:  cpu time      0.0000: real time      0.0000



 total charge

# of ion       s       p       d       tot
------------------------------------------
    1        0.357   6.238   3.057   9.653
    2        0.369   6.232   3.091   9.692
    3        0.349   6.212   3.029   9.590
    4        0.360   6.241   3.070   9.671
    5        0.358   6.247   3.050   9.655
    6        0.363   6.245   3.083   9.691
    7        0.358   6.239   3.059   9.656
    8        0.358   6.233   3.078   9.668
    9        0.360   6.249   3.060   9.669
   10        0.359   6.242   3.059   9.660
   11        0.354   6.234   3.051   9.638
   12        0.356   6.231   3.057   9.644
   13        0.353   6.228   3.045   9.627
   14        0.360   6.237   3.091   9.688
   15        0.360   6.235   3.090   9.685
   16        0.357   6.238   3.060   9.655
   17        0.354   6.227   3.060   9.640
   18        0.359   6.210   3.095   9.664
   19        0.372   6.233   3.124   9.729
   20        0.359   6.236   3.087   9.682
   21        0.350   6.228   3.027   9.605
   22        0.358   6.237   3.077   9.672
   23        0.359   6.210   3.100   9.668
   24        0.360   6.223   3.070   9.653
   25        0.352   6.214   3.049   9.614
   26        0.357   6.239   3.060   9.655
   27        0.362   6.249   3.074   9.685
   28        0.363   6.242   3.101   9.705
   29        0.352   6.216   3.035   9.602
   30        0.370   6.235   3.102   9.707
   31        0.360   6.243   3.079   9.683
   32        0.360   6.248   3.056   9.665
   33        0.363   6.250   3.073   9.686
   34        0.360   6.242   3.073   9.676
   35        0.360   6.236   3.085   9.681
   36        0.358   6.242   3.067   9.667
   37        0.356   6.241   3.066   9.663
   38        0.360   6.242   3.077   9.679
   39        0.358   6.241   3.053   9.652
   40        0.359   6.239   3.076   9.673
   41        0.360   6.237   3.080   9.676
   42        0.354   6.230   3.053   9.637
   43        0.364   6.227   3.081   9.673
   44        0.351   6.211   3.050   9.612
   45        0.358   6.241   3.049   9.649
   46        0.358   6.238   3.069   9.665
   47        0.359   6.239   3.071   9.669
   48        0.357   6.236   3.065   9.658
   49        0.352   6.204   3.060   9.616
   50        0.367   6.215   3.123   9.705
   51        0.355   6.232   3.064   9.651
   52        0.360   6.240   3.071   9.670
   53        0.360   6.243   3.067   9.670
   54        0.373   6.242   3.103   9.718
   55        0.349   6.206   3.037   9.591
   56        0.357   6.234   3.064   9.655
   57        0.358   6.240   3.061   9.660
   58        0.361   6.242   3.081   9.684
   59        0.360   6.237   3.091   9.688
   60        0.356   6.239   3.048   9.643
   61        0.359   6.233   3.097   9.690
   62        0.360   6.239   3.076   9.675
   63        0.358   6.239   3.062   9.658
   64        0.359   6.239   3.072   9.670
   65        0.358   6.240   3.064   9.663
   66        0.357   6.239   3.056   9.652
   67        0.357   6.240   3.054   9.651
   68        0.359   6.232   3.094   9.685
   69        0.356   6.233   3.054   9.644
   70        0.355   6.232   3.061   9.648
   71        0.357   6.237   3.067   9.662
   72        0.360   6.239   3.084   9.683
   73        0.359   6.237   3.086   9.682
   74        0.357   6.226   3.079   9.662
   75        0.353   6.234   3.040   9.628
   76        0.356   6.234   3.058   9.648
   77        0.358   6.239   3.066   9.662
   78        0.359   6.229   3.084   9.671
   79        0.364   6.222   3.102   9.687
   80        0.355   6.235   3.049   9.639
   81        0.361   6.242   3.068   9.671
   82        0.356   6.242   3.045   9.643
   83        0.356   6.227   3.078   9.661
   84        0.356   6.222   3.087   9.665
   85        0.358   6.239   3.059   9.656
   86        0.359   6.239   3.076   9.674
   87        0.360   6.239   3.076   9.675
   88        0.356   6.235   3.071   9.661
   89        0.356   6.235   3.070   9.662
   90        0.358   6.238   3.069   9.666
   91        0.358   6.241   3.063   9.663
   92        0.354   6.235   3.053   9.641
   93        0.354   6.234   3.050   9.639
   94        0.361   6.238   3.088   9.686
   95        0.357   6.249   3.049   9.655
   96        0.358   6.235   3.070   9.663
   97        0.353   6.234   3.042   9.630
   98        0.355   6.233   3.044   9.632
   99        0.359   6.244   3.070   9.673
  100        0.357   6.233   3.065   9.655
  101        0.355   6.232   3.046   9.633
  102        0.360   6.240   3.079   9.679
  103        0.361   6.236   3.092   9.689
  104        0.356   6.223   3.089   9.668
  105        0.352   6.230   3.043   9.625
  106        0.358   6.241   3.061   9.659
  107        0.357   6.243   3.048   9.649
  108        0.357   6.234   3.079   9.671
  109        0.346   6.217   3.022   9.585
  110        0.354   6.232   3.043   9.629
  111        0.358   6.235   3.083   9.677
  112        0.358   6.233   3.085   9.676
  113        0.358   6.237   3.086   9.681
  114        0.360   6.238   3.079   9.677
  115        0.418   6.341   4.154  10.912
  116        0.424   6.316   4.245  10.986
  117        0.424   6.317   4.245  10.986
  118        0.427   6.319   4.254  10.999
  119        0.426   6.318   4.248  10.992
  120        0.358   6.275   2.121   8.754
  121        0.356   6.272   2.120   8.749
  122        0.356   6.278   2.107   8.741
  123        0.369   6.296   2.150   8.816
  124        0.355   6.277   2.096   8.728
--------------------------------------------------
tot         44.724 773.752 381.5621200.038
 

 total amount of memory used by VASP MPI-rank0  6702056. kBytes
=======================================================================

   base      :      30000. kBytes
   nonl-proj :     799080. kBytes
   fftplans  :      67629. kBytes
   grid      :     159195. kBytes
   one-center:       1928. kBytes
   wavefun   :    5644224. kBytes
 
  
  
 General timing and accounting informations for this job:
 ========================================================
  
                  Total CPU time used (sec):     4479.203
                            User time (sec):     3932.173
                          System time (sec):      547.029
                         Elapsed time (sec):     4470.497
  
                   Maximum memory used (kb):     9970532.
                   Average memory used (kb):          N/A
  
                          Minor page faults:      1259968
                          Major page faults:           11
                 Voluntary context switches:       330103
