124
Lattice="-7.560079518782137 7.562060943398408 7.558757108263703 7.5519590757649055 -7.563782997213921 7.552359248763504 7.560400207638752 7.564103484514047 -7.560478948751022" Properties=species:S:1:pos:R:3:forces:R:3 energy=-1099.158214802675 free_energy=-1099.158214802675 stress="0.0013518025316522763 -0.0002569383173632902 0.0006923629857281168 -0.0002569383173632902 0.0008353150712444994 0.0004308068815386273 0.0006923629857281168 0.0004308068815386273 0.004515791730061616" pbc="T T T"
Cr       1.48543504       1.49491695      -1.49706131      -0.02432069      -0.02954324      -0.01332196
Cr      -0.02890456       2.97585273       2.99588722      -0.00091542      -0.00539066       0.00325619
Cr      -1.55721374       4.48530179       4.52831831       0.00587016      -0.01417632       0.00174490
Cr       3.05942168       9.05618547       3.02638239       0.00191928      -0.00687221       0.00909810
Ti       6.01132665      -3.05704082       3.05414728       0.00488823      -0.01855240      -0.00502177
Ti       9.05661451      -0.07604106      -0.09180935       0.02141808      -0.01333422      -0.01217274
Ti       3.04707515       5.98420636      -2.98993083       0.01110119       0.00040344       0.00722977
Ti       7.47378857       1.52168443       1.51156451       0.03657940      -0.08378704      -0.04385849
Ti      -0.00446740       6.04941912       0.04091839       0.00884222      -0.00570231       0.01778632
Ti       5.91971294       3.04445136       3.12846646       0.14277443      -0.00310770      -0.00083439
Ti       2.97636514      -3.04741318       9.04423511       0.09370627      -0.04025966      -0.06203483
Ti      -0.03312434       6.02527013       2.90002115       0.01371380      -0.00969408       0.01106179
Ti      -0.06698328       2.99854836       6.08927377       0.01336967      -0.01260314       0.00096447
Ti       1.52004851       4.48681656       4.46236116       0.04131444      -0.00524685      -0.00001729
Ti      -4.58077592       4.55850204       7.56786770       0.03182931      -0.00424658       0.02553554
Ti       0.04909462       9.14619060       2.89756435      -0.00339046      -0.00652123      -0.00163826
V        0.02651670       0.02335918       0.00573095      -0.05681026      -0.05908892      -0.02045270
V        2.99678111       2.99897981      -2.99497844      -0.00697188      -0.00938920      -0.00426590
V        4.57091379       4.51142501      -4.57568034      -0.00416081       0.00457564      -0.00217305
V        6.06716090       6.04636809      -6.05557552      -0.02466451       0.01952005      -0.04890123
V        1.44695015      -1.49220915       1.52346227      -0.01372540      -0.01150486       0.00560764
V        2.94250715       0.00607840      -0.01239844      -0.00554323      -0.01460286      -0.00366641
V        4.43367921       1.60453911      -1.39567228       0.00316568       0.00835926       0.00874392
V        6.00324689       3.13299314      -2.99405653      -0.00122813       0.00448894       0.01671398
V        7.57523136       4.55409130      -4.55898464      -0.01340325      -0.00229926       0.00711480
V        2.99735888      -3.01509761       3.01909289      -0.01138981      -0.00991426       0.00051922
V        4.47522570      -1.43397470       1.55007338       0.00879412       0.00085734       0.01303279
V        5.95271840      -0.04200586       0.03695787       0.00771605      -0.00497232      -0.00357440
V        7.62730875       1.74387125      -1.44605318       0.00162614      -0.01103491      -0.01385822
V        9.12532528       3.07672178      -3.04612539       0.00474269      -0.00190633      -0.00160336
V        4.47742798      -4.61183566       4.51784134       0.01083072      -0.00637886       0.00432466
V        7.50842892      -1.52621918       1.51682711       0.00697723      -0.00721937      -0.00862008
V       10.62739829       1.55829522      -1.54145055       0.00955108      -0.01338551       0.03348786
V        6.04032243      -6.03432043       6.06802200      -0.00175905      -0.04352221       0.04517231
V        7.59817009      -4.59364654       4.59132238      -0.01596353      -0.01111139       0.00908965
V        8.99756526      -3.06858705       3.02436852      -0.00007842       0.00482399      -0.00371928
V       10.60772176      -1.55251922       1.57945804       0.00311290       0.03093396       0.00771875
V       12.09744243       0.01951276       0.04023949       0.01601785      -0.02211613       0.01144023
V       -1.43502137       1.53887430       1.53664617      -0.02668599      -0.01615967      -0.00653962
V        0.02331569       2.99535656      -0.02480591      -0.00430449      -0.02250799      -0.00462280
V        1.50075836       4.45611621      -1.47258197       0.00753959      -0.01606251      -0.00099393
V        4.62141769       7.54163396      -4.54176524      -0.02006667       0.02020726      -0.00884314
V        0.01404271      -0.03319121       3.01543637      -0.01482277      -0.00793189       0.00024962
V        1.47541833       1.49582943       1.53877134      -0.01338656      -0.02254301      -0.01009137
V        2.97242788       2.99292394       0.00969664       0.00360373       0.00574871       0.00695585
V        4.54617887       4.51567503      -1.44668776       0.02292265       0.02082869       0.03029897
V        6.06235904       6.04126994      -3.04669392      -0.00980338       0.01068452       0.02438300
V        1.49473249      -1.50940720       4.51938188      -0.01275990       0.00374219       0.00752024
V        2.97809815      -0.02016591       3.02689019      -0.00536729       0.00111869       0.00046113
V        4.45727663       1.48945527       1.52077906      -0.00608557       0.00273417       0.02904746
V        5.96580764       3.13329120       0.01584565       0.01852099      -0.01577034       0.02323283
V        7.53532235       4.60796242      -1.51744773      -0.01871430       0.02364002       0.03475737
V        3.01267840      -3.00377834       6.02903987       0.00171844       0.00162735      -0.01874451
V        4.46492215      -1.49786739       4.55843954       0.00522865      -0.00272888      -0.00620540
V        5.98288389      -0.04076066       3.09014269       0.00638371      -0.01213410       0.00113949
V        9.04798066       3.05015069      -0.09667102       0.01147973      -0.01423874      -0.00724265
V        4.59439164      -4.53495070       7.50237451      -0.00995601      -0.03888053       0.01318592
V        6.02173859      -3.08416995       6.00563504       0.00637500      -0.01001469      -0.00111767
V        7.57859069      -1.52794330       4.60030847       0.01169150      -0.01291738       0.00090132
V        9.06786190      -0.08698177       3.01739123       0.03218259       0.05171223      -0.00183101
V       10.70250372       1.46462318       1.47417000      -0.14688490       0.09956510       0.14608635
V       -2.92443465       3.01180621       3.08159986      -0.03358954      -0.02209409       0.00548802
V       -1.56244642       4.44435470       1.49303103      -0.00203562      -0.01828570       0.00231113
V        1.52253862       7.56212498      -1.48188927       0.01447042      -0.01267349      -0.00486947
V        3.13252851       8.96550206      -3.00350899      -0.05932631       0.04459596      -0.09863840
V       -1.45798926       1.45326374       4.48991388      -0.00273527      -0.00935625       0.00109861
V        1.56868541       4.41519128       1.53727229       0.00101656      -0.02290799       0.02108572
V        3.03176473       6.03125091       0.03237458       0.00110573      -0.00388230       0.01211608
V        4.58857102       7.56754463      -1.46598455       0.01935763      -0.01285324       0.00959881
V       -0.01241059       0.01441136       6.03743394      -0.02859389      -0.01169906       0.02213277
V        1.49477860       1.48447590       4.48488828      -0.00446877       0.00670734      -0.00928605
V        3.06188282       2.95327433       3.04820432       0.02209428      -0.01083957       0.03710530
V        4.52242853       4.59883509       1.56368085      -0.00533880      -0.10081408       0.02674601
V        6.03840491       6.07803263      -0.00422579       0.02526581      -0.02787000       0.19387423
V        1.45034481      -1.44515764       7.52420930       0.01100952      -0.02056157      -0.00066015
V        2.99446873       0.00916938       6.04587387      -0.00007249       0.00252892      -0.00425529
V        4.42290998       1.42189985       4.62448460      -0.00156440      -0.00987191      -0.02182162
V        7.53117730       4.60300751       1.48113584       0.19643390      -0.20478550       0.08005599
V        4.53205288      -1.50194654       7.51213620       0.00411725      -0.02626979      -0.01975649
V        6.00043584      -0.07785541       6.00380459       0.00435824      -0.02529296      -0.00571467
V        7.59992033       1.36498295       4.56003598       0.06663169      -0.02198119       0.00339804
V        9.30472866       2.70901325       2.95419853      -0.30639092       0.38387376       0.12717254
V       -4.46566691       4.54001644       4.51578325      -0.02009976      -0.03259789       0.01460752
V       -3.03434564       6.01466287       3.03531861       0.01561067      -0.01363357       0.00827563
V       -1.71524789       7.65295652       1.41698715       0.00176269       0.01050813      -0.01205633
V       -0.03947999       9.09341053      -0.03330691      -0.02418813      -0.02118675       0.00180878
V       -2.93205375       3.00417789       6.03297951       0.00441793      -0.01074590      -0.01889709
V        1.69345412       7.63164879       1.50674139      -0.00215715       0.00998714       0.00949908
V        3.03142585       9.06763983      -0.00101206       0.00105401       0.00210401      -0.01511546
V       -1.54920165       1.44935029       7.65254505      -0.00030351       0.00140054       0.00440090
V        3.08969549       6.04633454       3.03245186       0.10141061      -0.00127849       0.01251135
V        4.56861343       7.53528513       1.59639156      -0.04256030       0.01953509       0.01892729
V       -0.02265166      -0.01217494       9.11245975       0.09213308      -0.01738886       0.02153511
V        1.51898544       1.47521864       7.60706796      -0.00318675      -0.01338616       0.01460961
V        2.91947818       2.95169148       6.11636351       0.03426879       0.01542024       0.00617618
V        4.43058778       4.50328824       4.76105956       0.22462153       0.02028022      -0.01461937
V        6.19490059       5.87120644       3.43041292      -0.54314302       0.67721441      -1.40627829
V        1.54354870      -1.38680341      10.57431597       0.03775768      -0.16580860      -0.03509650
V        3.00149951       0.01024000       9.06686281       0.00614877      -0.02584314       0.01936681
V        4.56211092       1.57938159       7.50014848       0.00944048       0.01888634      -0.01030733
V        7.95344362       4.31916833       4.19112456      -0.47788691       0.49627046       0.65231577
V       -6.15610970       6.04280011       5.97436369       0.13047368       0.02536595       0.09338552
V       -4.58934974       7.59673447       4.58640894       0.01232880      -0.01341091      -0.01017303
V       -3.12017942       9.15198290       2.98755165      -0.01605069       0.00535791       0.00015737
V       -1.54056730      10.64825869       1.53237064      -0.00729393       0.00149424      -0.00079147
V       -0.07314761      12.05707749      -0.06739278       0.02774287      -0.01016394       0.02696800
V       -3.05884219       6.01971658       6.09044123       0.01590301       0.00929125       0.01168829
V        1.50379169      10.61298607       1.48882768      -0.02628965       0.01627152      -0.01538140
V       -3.09080251       2.88877014       9.13530719       0.00772159      -0.01768917       0.02166482
V       -1.60175186       4.53345496       7.65624789       0.00124080      -0.01551037       0.00064250
V       -0.10263372       5.81807175       6.09596443       0.01217462      -0.02267483      -0.00932722
V        1.66709103       7.59205064       4.49676707       0.00351701      -0.01819204      -0.00527835
V       -1.48143079       1.48943271      10.63363881       0.01783090      -0.12711639       0.03604073
V       -0.00463028       2.96704932       9.06468155      -0.00397170      -0.00645683       0.00645398
V        1.51803234       4.55476620       7.62546983       0.01675107       0.00453209       0.00025058
V        3.11364476       6.01775897       6.04545523       0.08277017      -0.03659062       0.02248552
V        4.55320030       7.55897546       4.55225155      -0.01171271       0.01095564       0.14338577
V        0.04036921       0.07649745      12.15570081       0.04713324      -0.12959900      -0.00323870
V        1.50234929       1.52913603      10.58331092      -0.01745931      -0.01377109       0.02328735
V        3.00801663       3.03544186       9.06707232      -0.01334353       0.00760727       0.00430823
V        4.53582165       4.51002206       7.59234234       0.02373410       0.06747879       0.00141090
V        6.03137525       6.15968606       6.14986414       0.17781756      -0.20826395      -0.27945001
W        1.56543665      10.51763840      -1.56725481       0.01568245      -0.01647323       0.02941484
Zr      -1.45417504       7.64707819       4.64320230       0.01210911       0.00595542       0.01135508
