124
Lattice="-7.560079518782137 7.562060943398408 7.558757108263703 7.5519590757649055 -7.563782997213921 7.552359248763504 7.560400207638752 7.564103484514047 -7.560478948751022" Properties=species:S:1:pos:R:3:forces:R:3 energy=-1099.2461119059792 free_energy=-1099.2461119059792 stress="0.0027142920321417277 0.00021351558971101134 0.0004573431158548623 0.00021351558971101134 0.002899208885391001 -0.0003454831162781045 0.0004573431158548623 -0.0003454831162781045 0.0031463780881634904" pbc="T T T"
Cr       1.48188161       1.49445531      -1.50928848       0.00149391       0.00164858      -0.01164070
Cr      -0.02560969       2.97634328       2.99571169      -0.00299489       0.01084277      -0.00147438
Cr      -1.54877574       4.48338293       4.52773868      -0.00323405      -0.01207755      -0.02770407
Cr       3.05584116       9.07528813       3.01937639      -0.01402702       0.00750212       0.01015802
Ti       6.02170721      -3.04111818       3.06758905       0.01293452       0.00232333      -0.01013577
Ti       9.06783797      -0.07406143      -0.10215852       0.03391353      -0.02268439      -0.01777441
Ti       3.02903372       6.00144398      -3.00493929      -0.01618505       0.01238957      -0.01562245
Ti       7.48981011       1.50372769       1.47624033       0.05015609      -0.04815479      -0.03643336
Ti      -0.02136590       6.07039349       0.00867833      -0.00309462      -0.00120570      -0.00321330
Ti       5.92916037       3.07123900       3.04187344       0.11967946      -0.04311843      -0.05931438
Ti       2.98822319      -3.05757782       9.02970966       0.05573527      -0.05434105      -0.07908098
Ti      -0.05434387       6.02166865       2.89199253       0.00294785      -0.01011067       0.00549727
Ti      -0.05679259       3.00020179       6.08653820       0.01821478       0.01499048      -0.01349293
Ti       1.52470765       4.46040155       4.48129212       0.04597140      -0.01065008       0.01784206
Ti      -4.56074804       4.55823930       7.56282307       0.05564528      -0.00208107       0.01535346
Ti       0.03224814       9.16303137       2.88679135      -0.00236375       0.01901912      -0.00655097
V        0.02132077       0.05708242      -0.02932480      -0.04551860      -0.02722262      -0.06091434
V        2.99317541       2.99731462      -3.00929470      -0.02072137      -0.00926096      -0.01883055
V        4.57599559       4.50793573      -4.58399951       0.00248419       0.00141100      -0.00489442
V        6.05811174       6.09228835      -6.04094694       0.00517216       0.02029363      -0.05185934
V        1.45096401      -1.46217804       1.52980211      -0.02057008      -0.00160586      -0.00596855
V        2.93673493       0.02704262      -0.02264735       0.00606244       0.00468691      -0.01873344
V        4.43199032       1.60366750      -1.40451000       0.00683989       0.02511795      -0.00084447
V        6.00103248       3.13444082      -3.02261140      -0.01381125      -0.00725780      -0.00461020
V        7.56960711       4.55585787      -4.55446535      -0.02891062       0.00140294      -0.00005256
V        3.01488319      -3.00114519       3.02571103      -0.00791338       0.01063663       0.00309096
V        4.47476819      -1.42980437       1.55141084       0.00706992       0.00427287       0.01312135
V        5.94750217      -0.05202398       0.03477040       0.01181897      -0.00400427       0.01108462
V        7.62781020       1.73871698      -1.45786206      -0.01210353      -0.01207752      -0.01902946
V        9.12734129       3.08928555      -3.05111575       0.00355998       0.00906172      -0.00945746
V        4.48303898      -4.59728130       4.53011609      -0.00061651      -0.00805684       0.00455193
V        7.51796828      -1.51993392       1.52177187       0.00911612       0.00290184      -0.00708813
V       10.62115641       1.58001432      -1.55016218       0.00651224      -0.01085501       0.00830891
V        6.04313573      -6.05214752       6.02535203      -0.02711354      -0.04763018       0.00586431
V        7.61774834      -4.61943357       4.59816591      -0.01926812      -0.01655880      -0.00319980
V        9.00679919      -3.06613117       3.01494935      -0.01409137       0.00877600      -0.01837644
V       10.62168142      -1.54792075       1.56002453       0.01236232       0.05110861      -0.01749125
V       12.09123536       0.04850106       0.01506466       0.01152507       0.01035023      -0.02669315
V       -1.43746604       1.54308924       1.53076796      -0.02526568      -0.02531312      -0.01880737
V        0.02146331       2.99596406      -0.03491999      -0.00326778      -0.00892309      -0.00959249
V        1.48519591       4.46134014      -1.49685049      -0.00581046       0.00562844      -0.02126815
V        4.61306896       7.55404352      -4.54889219      -0.04629572       0.03380023      -0.02657183
V        0.01728975      -0.01765630       3.01973330      -0.01099822       0.01059111      -0.01489126
V        1.47169108       1.50988762       1.53626220      -0.00562896      -0.00497033      -0.01047784
V        2.96494975       3.00115228      -0.00867284       0.00467696       0.01321052      -0.01929810
V        4.53270126       4.50564008      -1.48135787       0.01562800       0.01591696      -0.00571014
V        6.05978653       6.05069089      -3.06514782      -0.00678080      -0.00005144      -0.00737973
V        1.50953230      -1.48777541       4.51557083       0.01065100       0.02953119       0.00157320
V        2.99116135       0.00150859       3.02280179       0.00479510       0.02449691       0.00854748
V        4.45984408       1.49726731       1.49990652      -0.02532573       0.01756989       0.00121888
V        5.96899122       3.13657625      -0.01190137       0.01169278       0.00920858       0.01236599
V        7.55192849       4.59738014      -1.55369566      -0.00473864       0.01891588      -0.00807656
V        3.02891515      -2.98389644       6.02938996       0.01752523       0.01908502      -0.03166274
V        4.47497501      -1.47104746       4.56216538       0.03589524       0.01290390       0.01758653
V        5.98052696      -0.01932005       3.08025063       0.01727919       0.00904125      -0.01708110
V        9.05092040       3.05522848      -0.11545319       0.01406210       0.00391885      -0.01009635
V        4.60161335      -4.53259318       7.49868521      -0.02312881      -0.03254805       0.01193718
V        6.03317300      -3.06710450       5.99580751       0.01053558       0.00727287      -0.01748165
V        7.57809556      -1.49477226       4.60197692       0.00718802       0.00210701       0.01104837
V        9.06565375      -0.05869300       3.00783894       0.03162821       0.07659114      -0.01199790
V       10.68194868       1.48335047       1.48438118      -0.13455747       0.10144613       0.09733520
V       -2.92925211       3.00805884       3.08037774      -0.05512974       0.00911079       0.00125864
V       -1.56306798       4.44637708       1.48463404      -0.01363653      -0.01989111       0.00455457
V        1.52344791       7.60807798      -1.49194988       0.04265560       0.01885189       0.00253855
V        3.11662785       8.99188586      -3.02541463      -0.05043830       0.06084510      -0.09680118
V       -1.45976979       1.46066606       4.48523861       0.00169373       0.00451248      -0.02059843
V        1.54407746       4.41446077       1.51131829      -0.00051989      -0.00678881       0.01017332
V        3.02789329       6.03221149       0.00151219       0.01601429       0.00643539      -0.00671216
V        4.57494216       7.58219124      -1.48148261       0.01138193      -0.00390760      -0.01483646
V        0.00195947       0.03019019       6.03116702       0.00407782       0.01771653      -0.00323720
V        1.51874731       1.49893190       4.49209243       0.01421408       0.03421143      -0.01143353
V        3.06895887       2.98830982       3.01106074       0.02544979       0.03288657      -0.02332913
V        4.51304479       4.67405746       1.47805996       0.05155129       0.01219202      -0.00928378
V        6.02509729       6.09184780      -0.13165844       0.01937599      -0.00382641      -0.00346595
V        1.45053967      -1.44838517       7.50290588       0.00475927      -0.00326609      -0.00015426
V        2.99706509       0.02468355       6.04270826       0.01317188       0.03543288       0.00022141
V        4.48798618       1.53525382       4.57755771       0.02021224       0.04094121      -0.08894669
V        7.48447608       4.69517921       1.39122477       0.10565542      -0.09143576       0.03462449
V        4.53834680      -1.49010074       7.50466576       0.02099738      -0.00287962      -0.00944598
V        6.01552000       0.02921388       5.98444318       0.03055196       0.10433799      -0.00845365
V        7.59802823       1.49468019       4.49416165       0.08099088       0.04447711      -0.06146069
V        9.24939393       2.79410943       2.95981354      -0.30889977       0.43793915       0.15350756
V       -4.47866068       4.52624741       4.52080865      -0.03069964      -0.02799485      -0.02079154
V       -3.01516575       6.00169320       3.04283529       0.00591182      -0.01664014       0.00062776
V       -1.71312918       7.66756655       1.40062011      -0.00679625       0.00929563      -0.02886729
V       -0.00864554       9.14453089      -0.05745767       0.07787839      -0.00552074       0.02154812
V       -2.94355975       3.00340593       6.02929225      -0.00641205      -0.00736825      -0.01936440
V        1.67656936       7.64459388       1.47515376       0.01002567       0.02214316      -0.00156117
V        3.05472798       9.06281027      -0.00671840       0.03014938       0.00010930      -0.01453276
V       -1.54599219       1.45062469       7.63900093       0.02412839      -0.01957611      -0.00489585
V        2.96414243       6.08349698       2.97189924       0.00984720       0.01779656       0.00101713
V        4.60080498       7.51842662       1.58473639       0.01786239      -0.00701251       0.01019001
V       -0.07039037      -0.03100328       9.09074131      -0.01094176      -0.06764432       0.03344681
V        1.52104738       1.47854316       7.60117581       0.01535633      -0.00330506       0.01181400
V        3.03648513       3.00317450       6.08705422       0.14169662       0.03932922      -0.01803791
V        4.43585016       4.73153365       4.49921490       0.26821311       0.08146529      -0.10958117
V        6.24670946       3.54322058       5.75844522      -0.51559858      -1.27413069       0.62299543
V        1.62496698      -1.36874726      10.54738051       0.00748116      -0.19174310       0.02751415
V        2.98962144       0.01166014       9.06200694      -0.01943778      -0.04330289       0.02454387
V        4.52776829       1.57382254       7.50291644       0.00492931       0.04427939      -0.00869120
V        7.84040003       4.58184639       4.03082112      -0.60846854       0.50511767       0.55620064
V       -6.16274719       6.06941491       5.94829449       0.08172398       0.06356574       0.03437791
V       -4.60390136       7.60947561       4.60200938      -0.00774860      -0.01070480      -0.00606992
V       -3.11995514       9.16482790       2.97143310      -0.02383960       0.00394087      -0.01597212
V       -1.53939745      10.68693156       1.43869659       0.01061497       0.02018707      -0.11918996
V        0.02274867      12.18103047       0.03434503       0.04402581       0.02207380      -0.07708362
V       -3.05592423       6.02384551       6.08349088      -0.00525639      -0.00156384      -0.00634263
V        1.56193061      10.58763051       1.51748092      -0.01173440       0.01987245       0.01577517
V       -3.07968457       2.89732876       9.12307732       0.01766741      -0.01011710       0.01592699
V       -1.59487701       4.54249962       7.65454643      -0.00629339      -0.00768655      -0.01673899
V       -0.09927696       5.81085289       6.10083903       0.01150068      -0.02090323      -0.00603599
V        1.64355403       7.61321705       4.51115869       0.00768625      -0.00692532       0.00608181
V       -1.48355350       1.57205327      10.59990078      -0.01693559      -0.01346195      -0.00226201
V        0.00802260       2.96071569       9.06340777       0.00231385      -0.01164815      -0.01099886
V        1.54249056       4.53226264       7.61329182       0.03353465      -0.00276103      -0.01884629
V        3.11258701       6.05018325       6.01558525       0.07172681       0.02650522      -0.02205612
V        4.52968460       7.60665785       4.44266354       0.04231390       0.02352789       0.05836305
V       -0.06824398      -0.01992725      12.04041987       0.01291308       0.05645225      -0.03154301
V        1.47006932       1.50091528      10.59545888      -0.01893284      -0.03584275       0.00580020
V        3.00504403       3.03674299       9.05705573      -0.00161640       0.00161782      -0.00984513
V        4.54934282       4.58877243       7.52990986      -0.00898272       0.17001527      -0.00238589
V        6.02011439       6.18618873       6.11739156       0.16120270      -0.21539262      -0.24347242
W        1.53603480      10.58366285      -1.59904776       0.03692263      -0.04182404       0.04611929
Zr      -1.45097111       7.64796995       4.63612644       0.00150193      -0.02133229      -0.00150680
