124
Lattice="-7.560079518782137 7.562060943398408 7.558757108263703 7.5519590757649055 -7.563782997213921 7.552359248763504 7.560400207638752 7.564103484514047 -7.560478948751022" Properties=species:S:1:pos:R:3:forces:R:3 energy=-1097.061832539951 free_energy=-1097.061832539951 stress="-0.002245614102022815 0.0006478798132889723 0.0017109120826130002 0.0006478798132889723 -0.0036014528598814492 -4.423365462910133e-05 0.0017109120826130002 -4.423365462910133e-05 0.002261634366060052" pbc="T T T"
Cr       1.49260997       1.50337435      -1.49305155       0.01812302       0.00601703       0.01442360
Cr      -0.02697352       2.98158317       2.99607835      -0.00845918       0.00131073       0.00023616
Cr      -1.55170062       4.48870367       4.52965478      -0.00757624      -0.00208914      -0.00462408
Cr       3.05814070       9.06327574       3.02112810       0.00021496      -0.01121050       0.00871513
Ti       6.00733231      -3.04732043       3.05769882      -0.00122847      -0.01104219      -0.01729549
Ti       9.04849573      -0.06840688      -0.08763557      -0.01302328       0.00046891       0.00464576
Ti       3.04179808       5.98244218      -2.99069316       0.00744403      -0.01228600      -0.00022350
Ti       7.45930787       1.55432285       1.52519807       0.01492039       0.01327915       0.00160923
Ti      -0.01280192       6.05545196       0.03214105       0.00395629      -0.01150808       0.02975544
Ti       5.86040515       3.04886512       3.12409215       0.05593202      -0.01762073       0.07313582
Ti       2.93590852      -3.03077511       9.07532541      -0.00361915      -0.02149628      -0.00970294
Ti      -0.03997559       6.03282203       2.89916454       0.01008522      -0.00205266       0.01531401
Ti      -0.06739592       2.99946906       6.08971989      -0.00191905       0.00654637       0.00114924
Ti       1.50020562       4.48270883       4.45897561       0.00942926       0.01005496      -0.01739754
Ti      -4.59432436       4.55785159       7.55434515       0.00946488       0.01871628      -0.00165153
Ti       0.04948296       9.14793620       2.89925693       0.00162091      -0.00162627      -0.00406905
V        0.05357131       0.05451649       0.01587087      -0.00541926      -0.02653044      -0.00094839
V        2.99945240       2.99891289      -2.99453767       0.00410515      -0.00001339       0.00259177
V        4.57211201       4.50974566      -4.57332497       0.00462799      -0.00511633      -0.00615256
V        6.07555017       6.04304893      -6.03568572       0.00505307      -0.01526795      -0.02363513
V        1.45005130      -1.48784498       1.51873491      -0.00206923      -0.01894793      -0.00865698
V        2.94396084       0.00784067      -0.01371353       0.01279474      -0.01058673      -0.00183650
V        4.43183589       1.59515952      -1.40280860       0.01217073       0.00237746       0.00258619
V        6.00618005       3.12881751      -3.00172613      -0.00064371      -0.00788502       0.00220158
V        7.58255287       4.55142135      -4.56193693      -0.00947354      -0.00675803      -0.01373552
V        3.00175625      -3.01060519       3.01524964      -0.01588168      -0.00684129      -0.00900420
V        4.47158419      -1.43518205       1.54673836      -0.00187125      -0.00342089      -0.00159551
V        5.94342443      -0.04281694       0.03617718       0.00879395       0.00758045       0.00629721
V        7.62955142       1.74534054      -1.44222667      -0.01119103       0.00485827      -0.00073934
V        9.12446721       3.08054496      -3.04710350      -0.00475577      -0.00638277      -0.01143545
V        4.47413149      -4.60504681       4.51742246      -0.00176511      -0.00880213      -0.01544237
V        7.50968314      -1.52590384       1.51816562      -0.01482387       0.00053724      -0.00520463
V       10.62164364       1.56837529      -1.55531668      -0.00947977      -0.00925705       0.01675329
V        6.04158188      -6.01432633       6.04836815      -0.02441493       0.01901138       0.05275141
V        7.60349344      -4.59092426       4.58882306      -0.01257581       0.01111307      -0.01085885
V        9.00102156      -3.07239042       3.02682273      -0.01140482      -0.00949533      -0.00303125
V       10.60739650      -1.56707618       1.57560820      -0.01562901       0.02357707       0.00849109
V       12.08828298       0.03775772       0.04165142       0.00478335      -0.01912268      -0.00327406
V       -1.41968357       1.54913980       1.54382350      -0.00785872       0.00055111       0.00439251
V        0.02257397       3.00719601      -0.02502867       0.00440173       0.00896650       0.00558051
V        1.49399309       4.45998260      -1.47589859       0.00746185       0.00448916       0.00799620
V        4.63241269       7.53246396      -4.53514762      -0.00509718      -0.00362897       0.00226951
V        0.01984755      -0.03126353       3.01763275      -0.00061586      -0.00596538      -0.00389453
V        1.47951134       1.50227230       1.53918286       0.00460037      -0.01732722      -0.00188005
V        2.96969451       2.98935978      -0.00011007       0.00585008      -0.00336897      -0.00132218
V        4.53686853       4.50106905      -1.46278082       0.01704002       0.01529794       0.01240621
V        6.06672026       6.03779312      -3.05752804      -0.00040594      -0.00229882      -0.00610260
V        1.49970474      -1.50910272       4.51473015      -0.00900317       0.00006856      -0.00172183
V        2.98412250      -0.01921798       3.02294057      -0.00561776      -0.01035273       0.00339043
V        4.46054642       1.48748526       1.50499182      -0.01457012       0.01378653       0.01760441
V        5.95873744       3.14061208       0.00704466      -0.00717197       0.00018576       0.02118196
V        7.54577122       4.59905938      -1.53110945      -0.01431327       0.01496518       0.01536271
V        3.00873806      -3.00224537       6.03662074      -0.00629782      -0.00800516      -0.01872429
V        4.46259847      -1.49219574       4.55725435       0.00842784      -0.01417613       0.00142625
V        5.98487152      -0.03425000       3.08777392       0.00178173      -0.00456882       0.00030632
V        9.04238805       3.05976475      -0.09527855       0.01008425      -0.00653636      -0.02306873
V        4.59957906      -4.51839184       7.49786173      -0.01598516      -0.00912463       0.00941347
V        6.01568781      -3.07602063       6.00539617      -0.00575504      -0.00642458       0.00319347
V        7.57511493      -1.52240735       4.59951347       0.00695568      -0.01139217      -0.00277582
V        9.05607078      -0.11063981       3.01870793       0.01506309       0.01372537      -0.00445043
V       10.76431846       1.42293387       1.41380136      -0.05313680       0.03031438       0.04448732
V       -2.90659298       3.01506781       3.07893291      -0.01692348      -0.00526813      -0.00776037
V       -1.56532581       4.45587371       1.48935797      -0.01035606      -0.00854039       0.00823970
V        1.51409788       7.56786892      -1.47877583       0.01867469      -0.04377679       0.01080797
V        3.15979945       8.94288106      -2.95829830       0.00289705      -0.01542059      -0.04368005
V       -1.45486380       1.45790607       4.49428632      -0.00063825      -0.00712853      -0.00561276
V        1.56145615       4.42528630       1.52255431       0.01623465      -0.00115903       0.02030380
V        3.02953507       6.03162081       0.02530712       0.01301630       0.00476166       0.02088499
V        4.57842735       7.57271455      -1.46955751       0.01586362      -0.01029988       0.00079091
V       -0.00282268       0.01920401       6.02771339      -0.00900168      -0.00287577       0.00631920
V        1.49345678       1.47787547       4.48569000      -0.01474954      -0.00412747      -0.01041249
V        3.04983900       2.95318738       3.02395526      -0.01070538      -0.01511093      -0.00022350
V        4.52391531       4.64666491       1.54727965       0.03565685      -0.05064323       0.03194610
V        6.02403563       6.08797586      -0.09678748       0.01230730      -0.01130695       0.04155455
V        1.44060907      -1.43512011       7.52134435       0.00205735      -0.00162773       0.01206528
V        2.99528156       0.00790015       6.04195882       0.00111143      -0.00140575       0.00668604
V        4.42987170       1.43176049       4.63013794      -0.03073018      -0.06004711      -0.02462470
V        7.43788835       4.69602651       1.45172229       0.15951519      -0.16867003       0.05116752
V        4.52466994      -1.49169935       7.51606190       0.00170697      -0.01470870      -0.00207130
V        5.99880905      -0.06682936       6.00421807       0.00552548      -0.02349502       0.00557626
V        7.56901448       1.37920599       4.55740435       0.05451194      -0.09591433       0.03210103
V        9.44466667       2.53606172       2.89893612      -0.09516390       0.11653356       0.04055106
V       -4.44455274       4.55097130       4.51130153       0.01254690       0.00879006      -0.01100570
V       -3.03364898       6.02122647       3.02958028       0.00359899       0.00724745      -0.01478948
V       -1.70947852       7.65183021       1.42036224       0.00015751      -0.00109370      -0.00218651
V       -0.03363562       9.09866197      -0.03675087       0.00608037      -0.04322617       0.01742805
V       -2.93023873       3.00722134       6.04520730       0.01142140      -0.00694227      -0.00500703
V        1.68808106       7.63349935       1.49915298       0.01803656      -0.00485809       0.02653052
V        3.03480466       9.06634084       0.00754324       0.00771244      -0.00294577       0.00364671
V       -1.54651047       1.45236670       7.64856762       0.00831117      -0.01980841       0.02082294
V        3.03585957       6.04925376       3.02162036       0.10000385      -0.04229672       0.05588576
V        4.58589862       7.52816658       1.58602790      -0.00266824      -0.01148627       0.02563742
V       -0.06885134      -0.00487055       9.10200681       0.00003771      -0.04668845       0.05355477
V        1.51959629       1.47753570       7.60102465       0.01081321       0.00387601       0.00176475
V        2.90740732       2.94535706       6.11512033      -0.01314480      -0.00859417       0.00016399
V        4.31674151       4.48967735       4.76564593       0.13497284      -0.16644423       0.17897090
V        6.44486890       5.54020275       4.11500907      -0.45910815       1.04462302      -1.30441492
V        1.52477570      -1.30449751      10.59551938       0.01203091      -0.06307184      -0.01461357
V        3.00130196       0.02142111       9.05304629       0.00231919      -0.00398876      -0.00019223
V        4.55768965       1.56812346       7.50574092       0.02802443       0.03072213      -0.01803690
V        8.18856722       4.09848691       3.88283284      -0.14173384       0.05381833       0.41355554
V       -6.21631166       6.02721162       5.93376733      -0.05081654      -0.03200507      -0.03432206
V       -4.60000780       7.59725330       4.59382038       0.01846718      -0.01203025      -0.00149019
V       -3.11574464       9.15045652       2.98503989       0.00311786      -0.00184394       0.00160664
V       -1.53427272      10.65055593       1.53002213       0.00638648       0.00161750      -0.01802132
V       -0.08696871      12.06439761      -0.08050818      -0.05758754      -0.04306016      -0.15318282
V       -3.06356231       6.02216151       6.08807815       0.01757793      -0.00198609       0.00934623
V        1.51800737      10.60229305       1.49448915      -0.03706079       0.02184698      -0.02054158
V       -3.08836033       2.89612807       9.13069904       0.00505138      -0.01048355       0.01455002
V       -1.59809697       4.53948533       7.65699153      -0.00444746      -0.01171037       0.00043226
V       -0.10601152       5.82778839       6.09799046       0.01714838      -0.00395794      -0.00757739
V        1.66242770       7.60480996       4.49855500       0.01716759      -0.01471075      -0.01282005
V       -1.48642729       1.54943022      10.62130716      -0.00347993      -0.07072772       0.03215282
V       -0.00464506       2.97037848       9.06334022      -0.00711808      -0.01504718       0.00428273
V        1.51250475       4.55435176       7.62663800      -0.01121005       0.00926993       0.00092724
V        3.07501068       6.04142198       6.04006856       0.00512413      -0.00592308       0.00329236
V        4.55143774       7.56019114       4.48495192      -0.01058869       0.00473318       0.12926978
V        0.01650845       0.12987258      12.16087465       0.10273136       0.11505473       0.11488393
V        1.50771399       1.53428194      10.57267013       0.02275689       0.00271656      -0.01777630
V        3.01096957       3.03738305       9.06897619       0.00237697      -0.00089204       0.00091258
V        4.52463179       4.47766057       7.58777879      -0.06391619       0.04628265       0.07712925
V        5.94377682       6.26551422       6.28966536       0.04115430      -0.03535942       0.03311338
W        1.56220043      10.52210948      -1.57456088       0.14728800      -0.12455097       0.05757258
Zr      -1.45976211       7.64950565       4.64094800       0.00752037      -0.00390309       0.00872280
