124
Lattice="-7.560079518782137 7.562060943398408 7.558757108263703 7.5519590757649055 -7.563782997213921 7.552359248763504 7.560400207638752 7.564103484514047 -7.560478948751022" Properties=species:S:1:pos:R:3:forces:R:3 energy=-1096.18167273304 free_energy=-1096.18167273304 stress="-0.0036143584802688588 0.0008786538573664639 0.0015106665295568022 0.0008786538573664639 -0.0032910372882495992 1.1007667124305655e-05 0.0015106665295568022 1.1007667124305655e-05 -0.00015091033989027435" pbc="T T T"
Cr       1.49058070       1.50515678      -1.49723255      -0.00658361      -0.00471732       0.00192376
Cr      -0.03253562       2.98370454       2.99550662      -0.00436744       0.00147851      -0.00488884
Cr      -1.55682296       4.48802714       4.52440581       0.00601599      -0.00119078      -0.00442316
Cr       3.05824852       9.06865756       3.01826382       0.00083900      -0.00295427       0.00334506
Ti       6.00528888      -3.04113429       3.05744164       0.00067237       0.00063636      -0.00428716
Ti       9.05263374      -0.06876970      -0.08774928       0.00503641      -0.00809116      -0.00732333
Ti       3.03484126       5.99074812      -2.99414971      -0.00123328      -0.00323213      -0.00423244
Ti       7.45435277       1.55890802       1.52816477       0.00349918      -0.00107701       0.00204340
Ti      -0.00841181       6.05513821       0.02460491      -0.00604201      -0.00094076       0.00233714
Ti       5.82197255       3.04916395       3.08083726       0.00060634       0.00468854      -0.00237448
Ti       2.92933486      -3.01506002       9.08569259       0.00495944      -0.00156315       0.00268606
Ti      -0.04709849       6.03366289       2.89526614      -0.00673708       0.00050843       0.00838252
Ti      -0.07035925       3.00545808       6.08564734      -0.00026902       0.00446707      -0.00663894
Ti       1.49147708       4.48686754       4.47227378      -0.00756578       0.00016634       0.00356606
Ti      -4.59850477       4.54868204       7.55725520       0.00329740       0.00040304       0.00246905
Ti       0.04882769       9.14495276       2.90477337       0.00148848       0.00604523       0.00017592
V        0.06729976       0.06500704       0.01767399      -0.00669825      -0.00772674      -0.00234203
V        2.99288646       3.00153597      -2.99566264      -0.00322094      -0.00258855      -0.00295173
V        4.56529060       4.50844407      -4.57265729       0.00677741       0.00026823      -0.00553446
V        6.07683811       6.04524806      -6.02568246      -0.00006437      -0.00424034      -0.00361143
V        1.45805092      -1.48082091       1.53405055      -0.00350330      -0.00241211       0.00048210
V        2.95112730       0.01405723      -0.01147462      -0.00508079      -0.00868442      -0.00224041
V        4.43282548       1.60076497      -1.40845080      -0.00287085      -0.00144952      -0.00540534
V        6.00086261       3.12603466      -2.99956234      -0.00168799      -0.00192820       0.00399280
V        7.57746484       4.55103510      -4.55155870       0.00028026      -0.00000338      -0.00119265
V        3.00470840      -3.01023415       3.01955699      -0.00086213      -0.00191667      -0.00083259
V        4.47526835      -1.43672573       1.54648052      -0.00073091      -0.00088528      -0.00011985
V        5.94412586      -0.04379627       0.03663184       0.00949671      -0.00086928      -0.00039505
V        7.62943467       1.74394491      -1.43774832      -0.00499401       0.00505640       0.00244908
V        9.12294632       3.07960791      -3.03960234       0.00205263      -0.00073003       0.00382617
V        4.47315518      -4.60024279       4.52123986       0.00484772      -0.00835439       0.00277399
V        7.51082773      -1.52483909       1.51961580      -0.00282382      -0.00370055       0.00204626
V       10.62854878       1.56819193      -1.56304995       0.00122569      -0.00584411       0.00427931
V        6.05624012      -6.02195251       6.02053090      -0.00463738      -0.00507089      -0.00231013
V        7.60368523      -4.59188336       4.58904638      -0.00680269      -0.01352103       0.00327788
V        8.99997320      -3.07034493       3.02483183       0.00220100      -0.00757334      -0.00409518
V       10.61370152      -1.57659988       1.56412223       0.00276299       0.00354105      -0.00457268
V       12.09264934       0.04374593       0.03594425      -0.00242129       0.00060214      -0.00346001
V       -1.41514066       1.54570102       1.53613246      -0.00010001      -0.00451323      -0.00251543
V        0.02373420       3.00464779      -0.02928416       0.00376663      -0.00177220      -0.00519633
V        1.49130514       4.46157078      -1.48044172      -0.00064204      -0.00420804      -0.00302142
V        4.62977996       7.52605481      -4.54086615       0.00191751      -0.00495978      -0.00432508
V        0.01952332      -0.02769427       3.02028911      -0.00088522       0.00076131       0.00226626
V        1.48342981       1.51058888       1.54334520      -0.00011145      -0.00659492      -0.00394960
V        2.96887238       2.99685308      -0.00483362      -0.00398730      -0.00275554      -0.01172506
V        4.53518346       4.50196369      -1.47064642       0.00331222      -0.00346499      -0.00537827
V        6.06255631       6.03933179      -3.05826767       0.00004741      -0.00283986      -0.00141194
V        1.50246548      -1.50686645       4.51513259       0.00105779       0.00443139      -0.00107385
V        2.98981166      -0.01753861       3.03028493       0.00281500      -0.00046301       0.00247026
V        4.46067484       1.47912306       1.49731249      -0.00323696       0.00944900       0.00487731
V        5.96132610       3.14633427      -0.00177345      -0.00756049       0.00837267       0.01171355
V        7.55370062       4.59519952      -1.54113833      -0.00523940       0.00447764       0.00616805
V        3.01002555      -3.00227740       6.04039824      -0.00423645      -0.00337878      -0.00212285
V        4.46545628      -1.49072651       4.56286848       0.00622422      -0.00378061       0.00049324
V        5.98901943      -0.02911929       3.09412268       0.00610712       0.01060330       0.00132849
V        9.04258567       3.06191469      -0.08569073      -0.00315144       0.00652978      -0.00226447
V        4.60100164      -4.52249870       7.49159900      -0.00482387      -0.00705216       0.00250878
V        6.01579500      -3.07429876       6.00386740      -0.00213970      -0.00175535      -0.00350603
V        7.57622796      -1.51612740       4.59931319       0.00321626       0.00202268      -0.00398155
V        9.04713104      -0.11680872       3.02085150       0.00149180       0.00171557       0.00252502
V       10.78893681       1.40062644       1.38814064      -0.00678129       0.00755072       0.01625731
V       -2.90578927       3.01624318       3.07814327       0.00485305      -0.00108549       0.00566879
V       -1.56712785       4.45406709       1.48711107       0.00066767      -0.00144433      -0.00197494
V        1.50908733       7.59584787      -1.48145414      -0.00292976       0.00480835       0.00465810
V        3.15561641       8.94958619      -2.93569531       0.00895579      -0.00212468      -0.00013115
V       -1.46257734       1.46076602       4.48956695       0.00417572      -0.00034689       0.00050355
V        1.55069398       4.42631927       1.51609375      -0.00410357       0.00013036      -0.00406159
V        3.03007359       6.03593135       0.01636816      -0.00559316      -0.00280204      -0.00307929
V        4.57376064       7.58030013      -1.47185751       0.00202139      -0.00329111       0.00540504
V        0.00419493       0.02673538       6.02005182      -0.00207652       0.00234274      -0.00077533
V        1.49442277       1.48235807       4.48897648       0.00258228       0.00011825      -0.00386113
V        3.03780719       2.95617186       3.02199320       0.01220669      -0.00238958       0.00322238
V        4.50181538       4.67593777       1.52736567      -0.00878111      -0.00020103      -0.00196796
V        6.02482306       6.09933434      -0.12098076      -0.00748533      -0.00169900       0.00445321
V        1.44713244      -1.42794451       7.51246077      -0.00360350       0.00577990      -0.00000839
V        3.00309228       0.00983369       6.04094298      -0.00090554      -0.00193781      -0.00263599
V        4.44350993       1.46040547       4.64867287       0.00495772       0.00933612      -0.00390452
V        7.36855037       4.77357012       1.41906186      -0.01942853       0.02894928       0.01634713
V        4.52652144      -1.49326161       7.52103911       0.00009584      -0.00620232      -0.00436109
V        6.00665668      -0.06263395       6.00640510       0.00015650       0.00325981      -0.00172316
V        7.54130093       1.43299113       4.54084182       0.00451828       0.00190735       0.00214829
V        9.50696651       2.46369673       2.86814214       0.00742990      -0.00359649       0.01271040
V       -4.45319578       4.55197378       4.51599075       0.01235591       0.00268401       0.00792245
V       -3.03639166       6.02168519       3.03222124       0.00304810       0.00167250      -0.00670038
V       -1.70004309       7.64803372       1.41725139       0.01089113      -0.00319292      -0.00204362
V       -0.03753664       9.12259645      -0.04142351      -0.00128681       0.00027185       0.00225393
V       -2.94319711       3.00696250       6.04387065       0.00146428      -0.00254774       0.00732042
V        1.68484198       7.63802693       1.48829204      -0.00384388       0.00110593      -0.00232451
V        3.03004120       9.07222937       0.00375851      -0.00090398       0.00372361       0.00314125
V       -1.54588140       1.46298868       7.63331102       0.00454332       0.00419411      -0.00258147
V        2.98345949       6.07026334       2.99232868      -0.00727839       0.00022095      -0.00156525
V        4.59201920       7.53661763       1.57528258       0.00495716      -0.00455464       0.00844499
V       -0.06678583       0.02358537       9.06913430       0.00043820       0.00661516      -0.00470572
V        1.52310099       1.48243347       7.59787730       0.00679465       0.00575602      -0.00832372
V        2.91188431       2.94961436       6.11876665       0.00099708       0.00017768      -0.00041237
V        4.23783604       4.57265401       4.66949795      -0.01553203      -0.00075139      -0.00856767
V        6.69749698       4.96270884       4.81875368       0.00224840      -0.00046533      -0.00142985
V        1.50866614      -1.26205399      10.60748749       0.00433495       0.00365140       0.00850264
V        3.00359538       0.02356222       9.05418634       0.00641614       0.00447065      -0.00515261
V        4.55279170       1.55258643       7.52165660       0.00303850       0.00391657       0.00148351
V        8.25610062       4.07256872       3.65787617      -0.00529671       0.01619904       0.00286617
V       -6.18643336       6.04771153       5.95428674       0.00029492       0.00227559      -0.00604332
V       -4.60714241       7.61058692       4.59421305       0.00055244      -0.00286656       0.00043010
V       -3.12048623       9.15118082       2.98437699      -0.00050633       0.00275322       0.00130892
V       -1.53898070      10.64951721       1.53875122      -0.00211172       0.00054357      -0.00423480
V       -0.05384566      12.09602842       0.00847564      -0.00520392      -0.00376770      -0.00128550
V       -3.07006439       6.02156224       6.08259433       0.00898355      -0.00832972       0.00587657
V        1.52808670      10.59294363       1.50760611      -0.00017744       0.00375401       0.00055063
V       -3.09228397       2.90184426       9.11927948       0.00213731       0.00475257       0.00127142
V       -1.60567639       4.53939912       7.65249892       0.00055666      -0.00557142       0.00227368
V       -0.11587400       5.83090028       6.10622145       0.01281944       0.00110117      -0.00687041
V        1.65823727       7.61195884       4.51082891      -0.00030651       0.00515249       0.00161576
V       -1.48717638       1.58173897      10.60123310      -0.00387605      -0.00535517       0.00121961
V       -0.00254974       2.97682339       9.05830591       0.00352000      -0.00647029       0.00478930
V        1.51805790       4.55107105       7.62660572       0.00496577      -0.00324189       0.00017122
V        3.07177261       6.04709221       6.04022788      -0.00065638       0.00026760       0.00101165
V        4.55713960       7.55716180       4.41916597      -0.00308038       0.00057248      -0.00098332
V       -0.04162261       0.07802565      12.11013935      -0.00410250       0.00091685      -0.00853353
V        1.49106395       1.53047182      10.58180257      -0.00010468      -0.00389082      -0.00002797
V        3.01166865       3.03810380       9.06754172       0.00369649      -0.00044936      -0.00059627
V        4.56007745       4.46010640       7.54579465      -0.00310515       0.00336972      -0.00085067
V        5.92492002       6.28572209       6.26698233      -0.00706561       0.00472311       0.00314519
W        1.48169279      10.59001145      -1.59952559       0.00076351       0.00326871       0.00275146
Zr      -1.46160339       7.64652674       4.63791857       0.00298435      -0.00113855       0.00128873
