124
Lattice="-7.560079518782137 7.562060943398408 7.558757108263703 7.5519590757649055 -7.563782997213921 7.552359248763504 7.560400207638752 7.564103484514047 -7.560478948751022" Properties=species:S:1:pos:R:3:forces:R:3 energy=-1096.9793500403234 free_energy=-1096.9793500403234 stress="-0.002083531082911034 0.0006740579414888937 0.0009496197097925832 0.0006740579414888937 -0.00010149561481191271 -0.00016906039244491444 0.0009496197097925832 -0.00016906039244491444 -0.0009662076343808144" pbc="T T T"
Cr       1.47897557       1.48666034      -1.50684733      -0.01044589      -0.02619102      -0.01008932
Cr      -0.02873338       2.98070398       2.99440352      -0.00106970       0.00282029      -0.00206644
Cr      -1.55228458       4.48682377       4.52865214      -0.00334089       0.00029473      -0.00582788
Cr       3.05470736       9.07517916       3.01806943       0.00296134       0.01053442       0.00390627
Ti       6.01455011      -3.04363726       3.06174771       0.01092631      -0.00985314      -0.00844503
Ti       9.05144246      -0.07352154      -0.09311964      -0.00768743       0.00773397       0.00794457
Ti       3.02953252       5.98891843      -2.99655489      -0.00718252       0.00255425      -0.01378863
Ti       7.45964770       1.53723557       1.50906398       0.03987379      -0.03399453      -0.05250718
Ti      -0.01329458       6.05999009       0.01537677      -0.00363425       0.00518763      -0.00030348
Ti       5.86731188       3.07864942       3.05563576       0.07513372       0.03843443      -0.05142185
Ti       2.95821152      -3.03983449       9.06264860       0.03917874      -0.04557945      -0.03845547
Ti      -0.05336789       6.02870607       2.89628867      -0.00964599      -0.01016430       0.00458148
Ti      -0.05969346       3.00350673       6.08778600       0.00829566       0.01360901      -0.00190181
Ti       1.50355723       4.46906710       4.47358731       0.02424527      -0.00903549       0.01167840
Ti      -4.58044412       4.55919136       7.55477170       0.01453226       0.02073590      -0.00217628
Ti       0.03859115       9.15240221       2.89465896      -0.01290666       0.01362098      -0.01758672
V        0.05300943       0.06033819       0.00281783      -0.00655264      -0.00582589      -0.01338138
V        2.98835707       2.99502102      -3.00030765      -0.01169117      -0.00484335      -0.01032548
V        4.56628685       4.50370520      -4.57528704      -0.00225988      -0.01479771      -0.01150661
V        6.06042453       6.07105652      -6.01301826      -0.02787871       0.03870734       0.00036394
V        1.46648041      -1.46563249       1.54362200       0.01948717       0.02263427       0.02491299
V        2.94409087       0.01730468      -0.01480033       0.00218979       0.00765017      -0.00098916
V        4.42570719       1.59856464      -1.40942103       0.00353269       0.00310446      -0.01406718
V        6.00011557       3.12763926      -3.01032679      -0.00881440      -0.01093046      -0.01115824
V        7.57734166       4.55250946      -4.55191736      -0.00853392      -0.00722351      -0.00115944
V        3.01570877      -3.00436157       3.02194616       0.00718662       0.00327624       0.00725893
V        4.47568316      -1.43212340       1.54916339       0.00990080       0.00371557      -0.00252406
V        5.93934726      -0.04484513       0.03656311       0.00917771      -0.00143173       0.00336993
V        7.62516550       1.74004772      -1.44536092      -0.01964496      -0.00743562      -0.00756388
V        9.12468934       3.08639367      -3.04455959      -0.00151944       0.00062529      -0.00357503
V        4.47863393      -4.59845409       4.52612416       0.00678229      -0.00156107      -0.00118653
V        7.51448499      -1.52490458       1.52277759      -0.00352774      -0.00066554      -0.00083755
V       10.61658467       1.58004461      -1.55587603      -0.01622083       0.01331497       0.01564212
V        6.05211586      -6.03555302       6.01473055      -0.00476324      -0.02827207       0.00066394
V        7.60651545      -4.61700588       4.59113537      -0.00433531      -0.03152198      -0.00165839
V        8.99968298      -3.07210321       3.02338912      -0.00958330      -0.00939467      -0.01648895
V       10.61031265      -1.56967667       1.56495858      -0.00064362       0.01521979      -0.01039472
V       12.08371676       0.04929437       0.03524293      -0.00016937      -0.00564747      -0.00270393
V       -1.42102166       1.54884417       1.53824769      -0.00621341       0.00302409      -0.01163564
V        0.02140450       2.99909196      -0.03527369       0.00442820      -0.00424802      -0.00587264
V        1.48651093       4.45362666      -1.48812807      -0.01261032      -0.00467927      -0.01562318
V        4.62699177       7.53163712      -4.53829060      -0.00283862      -0.00197495       0.00694839
V        0.02123544      -0.02151515       3.02556539       0.01084122       0.00858211       0.01432211
V        1.48002765       1.51099512       1.53749697      -0.00121157      -0.00693450      -0.01281696
V        2.96646488       2.99512948      -0.00848127      -0.01143339       0.00542350      -0.01551118
V        4.53165137       4.49876389      -1.47733651      -0.00311226       0.01369202      -0.02134414
V        6.06085409       6.04217521      -3.05962853      -0.00481092       0.01583230      -0.01266702
V        1.50846716      -1.49673769       4.51583990       0.00736675       0.02692789       0.00210113
V        2.99290495      -0.00792879       3.02292970       0.01083205       0.01041723       0.00538141
V        4.46136951       1.48885363       1.50084757      -0.01757410       0.00564189      -0.00224329
V        5.96102173       3.13888653      -0.01293941      -0.00341172      -0.00736343      -0.00474589
V        7.55238227       4.59625907      -1.55284979      -0.00672490       0.01005817      -0.02045268
V        3.01826762      -2.99155095       6.03678117       0.00791553       0.00851223      -0.01311090
V        4.46985387      -1.48068682       4.55903694       0.02298736       0.00576382       0.00745023
V        5.98426850      -0.02064455       3.08986515      -0.00395198       0.01097527       0.00048931
V        9.04278833       3.06264980      -0.10266067       0.00405126      -0.00523640      -0.04245517
V        4.60144053      -4.52078731       7.49546138      -0.00239790      -0.01220394      -0.00194333
V        6.02419654      -3.07592287       5.99660769       0.00913225      -0.00947618      -0.00678551
V        7.57732968      -1.50519705       4.59987611       0.00753874       0.01749271      -0.00331404
V        9.05147719      -0.10022358       3.01614395       0.00877852       0.03725505      -0.00728342
V       10.74917102       1.43053600       1.43074503      -0.08268555       0.04214699       0.07460586
V       -2.90686567       3.01241672       3.07852977      -0.00990323      -0.01900986      -0.00896134
V       -1.56344494       4.45384249       1.48344708      -0.00500501      -0.00972928      -0.00686477
V        1.50990763       7.60248716      -1.48296722       0.01311752       0.01030328       0.00664903
V        3.14621842       8.95663837      -2.97458759      -0.01519515       0.01158780      -0.05981082
V       -1.45746936       1.46211629       4.49247873      -0.00208624      -0.00247989      -0.01380761
V        1.54314297       4.41983378       1.50769806      -0.01846147      -0.01032276      -0.00471396
V        3.02616708       6.03414981       0.00789168       0.00030371       0.01088842      -0.01215976
V        4.57195591       7.58090746      -1.47559281      -0.00019575       0.01041005      -0.01153056
V        0.00416111       0.03176036       6.02211906      -0.00033542       0.01548467       0.00362290
V        1.51206637       1.49004670       4.49091931       0.02525544       0.02080617       0.00437513
V        3.05173309       2.96506398       3.01398251      -0.00412215       0.01607362      -0.00543100
V        4.49202018       4.67167831       1.48400412      -0.03448755      -0.00102767      -0.08116113
V        6.02004807       6.09762264      -0.12884570      -0.00202973       0.01529028      -0.00774117
V        1.45135679      -1.43583579       7.49805013       0.01316816      -0.00330217      -0.02418994
V        3.00412656       0.01960678       6.03780342       0.00883122       0.01863284       0.01061854
V        4.47852343       1.50809843       4.62689486       0.04899282       0.07382518      -0.04582752
V        7.41785712       4.75149327       1.37574019       0.11097384      -0.05910594      -0.07607756
V        4.53416011      -1.49102879       7.51042353       0.01583568      -0.01240078      -0.01513085
V        6.01045850      -0.03703371       5.99403839       0.01746649       0.03415318      -0.01501354
V        7.56307095       1.46707207       4.52349041       0.03959937       0.05871463      -0.03611878
V        9.42000215       2.57303750       2.89923472      -0.16889351       0.21545790       0.06769626
V       -4.45276547       4.53810131       4.51267825      -0.01930746      -0.02086426      -0.00164271
V       -3.02074492       6.01450299       3.03453023       0.02273277      -0.01467481      -0.00646774
V       -1.70242639       7.65613848       1.40814229       0.00139149       0.01241555      -0.01539180
V       -0.04350807       9.15183756      -0.06326604      -0.00756909       0.05314995      -0.03175456
V       -2.93995584       3.00729510       6.03932439      -0.00658801      -0.00942985      -0.01067731
V        1.67529192       7.64107677       1.47945086      -0.00533859      -0.00029859      -0.00253826
V        3.03680795       9.07029705      -0.00188672       0.01384512       0.00731988      -0.00670100
V       -1.54718895       1.46086167       7.63509077      -0.00055766       0.00381579      -0.00914946
V        2.95640097       6.08367687       2.97125260      -0.04048830       0.02247427      -0.03310838
V        4.59521353       7.52601425       1.58255761       0.01376521      -0.01581751       0.01940058
V       -0.06857589       0.01088846       9.06268567       0.00157309      -0.01355553      -0.01433034
V        1.52550913       1.48846036       7.59454467       0.01536375       0.02202989      -0.01388298
V        2.96790113       2.98360299       6.09432399       0.10606001       0.06299698      -0.04234912
V        4.30376168       4.69364563       4.54554231       0.09318279       0.20523304      -0.21545118
V        6.52347018       4.21661667       5.42372694      -0.34076400      -1.36870159       1.06364873
V        1.62766540      -1.26774825      10.53310241       0.20905128      -0.00992613      -0.12881903
V        3.00397990       0.02754773       9.04941230       0.00347675       0.00793695      -0.00322733
V        4.53952407       1.55437979       7.51734439      -0.00900114       0.01088821      -0.00681750
V        8.15306634       4.31195568       3.74264166      -0.19495323       0.44839376       0.16287977
V       -6.20737563       6.04222680       5.93521077      -0.04099941      -0.02309786      -0.03096570
V       -4.60704054       7.61062631       4.60464775       0.00922109       0.01155271       0.02548090
V       -3.11729704       9.16157053       2.97964458       0.00301725       0.01869279       0.00136668
V       -1.54301730      10.66911917       1.50903353      -0.00707422       0.03032577      -0.06140121
V        0.00082582      12.15397289       0.07986582       0.09528557       0.10276762       0.12169593
V       -3.06484946       6.02849943       6.08591454       0.02928753       0.00259110       0.00289938
V        1.55667920      10.57931696       1.51967670       0.03096134      -0.01241387       0.01703779
V       -3.08402959       2.90296520       9.11895588       0.00574317       0.00209632      -0.00581577
V       -1.59944504       4.54186030       7.65568034      -0.00279592      -0.00861374       0.00346009
V       -0.10935311       5.82319715       6.10246759       0.02581585      -0.00791287      -0.00227075
V        1.63896841       7.61514113       4.51386275      -0.02446310       0.00563853       0.01664819
V       -1.48273643       1.56447637      10.60648880       0.00633588      -0.03841734       0.00191282
V        0.00207401       2.96923380       9.06162238       0.00688542      -0.02346072       0.00128941
V        1.53107015       4.54192702       7.62101798       0.02962912      -0.01750223      -0.00632281
V        3.07048388       6.04865239       6.03937046       0.01584763      -0.00253753      -0.00440235
V        4.51098415       7.60343049       4.42560626      -0.07706530       0.07846829       0.02585847
V       -0.07713017      -0.04526880      12.06246283      -0.05491499      -0.19164853      -0.06718226
V        1.47141390       1.51216815      10.59221926      -0.03011593      -0.03544991       0.01426807
V        3.00710888       3.03908428       9.06215092       0.00304405      -0.00396057      -0.00704252
V        4.55984431       4.51432901       7.53500064      -0.00130947       0.11929231      -0.02908136
V        5.93258747       6.30814259       6.24648658       0.01300784       0.05195931      -0.05804936
W        1.50931697      10.59330414      -1.60727037       0.04718880       0.01829692      -0.01293924
Zr      -1.46047907       7.64739636       4.63702523       0.00251641      -0.00333545       0.00178823
