124
Lattice="-7.542928046 7.540699198 7.540388523 7.547476001 -7.553831611 7.558065225 7.537725071 7.548625092 -7.553522243" Properties=species:S:1:pos:R:3:forces:R:3 stress="0.004921573500468845 0.0006775282986328794 -0.0008431966753611989 0.0006775282986328794 0.00399187575013203 -0.0006803681852851565 -0.0008431966753611989 -0.0006803681852851565 0.004660740834098183" free_energy=-1122.80520277 energy=-1122.79778762 pbc="T T T"
Cr       3.06659000      -2.95636000       2.99416000       0.00025600      -0.00028200       0.00010000
Cr       3.03510000       9.02012000      -2.97273000      -0.00025600       0.00026100      -0.00022800
Cr       4.49364000       7.59129000      -1.52024000      -0.00022800       0.00034300      -0.00000200
Cr       6.06339000       2.95370000       3.06205000      -0.00030900      -0.00012400      -0.00019100
Cr       1.46998000       4.51442000       4.54784000      -0.00016700      -0.00037300       0.00001700
Cr       3.00941000      -0.08760000      12.04201000       0.00026400      -0.00060800       0.00013600
Ti      -4.17515000       7.85541000       7.21114000       0.00076700       0.00057200      -0.00057500
Ti       4.56166000      -4.53186000       7.55605000      -0.00029100      -0.00013700       0.00032500
Ti       4.53633000       4.52048000       1.50546000      -0.00002700      -0.00042000      -0.00071300
Ti       1.55364000      10.59557000       1.51989000       0.00028900      -0.00000100      -0.00010100
Ti       4.49193000       7.56698000       4.37772000       0.00071900      -0.00006700      -0.00004400
V        0.13448000       0.07187000       0.07138000      -0.00042000       0.00008000       0.00025700
V        1.42685000       1.48188000      13.54702000       0.00017400      -0.00006700       0.00013100
V        3.12886000       2.91078000      -2.87168000       0.00127600      -0.00037500       0.00041700
V        4.52232000       4.50121000      -4.48039000       0.00020600       0.00064300      -0.00014700
V        6.06450000       6.03808000      -5.98226000       0.00051800       0.00047900      -0.00013200
V       -5.94811000       6.03449000       9.04222000      -0.00017600       0.00006100      -0.00026800
V        3.00603000       3.03018000      -0.08466000      -0.00016900      -0.00042700       0.00009400
V       -1.58656000      10.52240000       4.53644000       0.00018100       0.00116700      -0.00021200
V        7.50163000       4.56612000      -4.52558000       0.00019400       0.00024200      -0.00024900
V       -3.00217000       6.02517000       9.04675000      -0.00078000       0.00052100       0.00040400
V       -1.46444000       7.50395000       7.56401000      -0.00003000      -0.00012200       0.00074600
V       -0.01989000       8.97590000       5.98919000      -0.00034600      -0.00036800      -0.00057100
V        1.48176000      10.61357000       4.44656000       0.00049700      -0.00015100       0.00022600
V       -3.04548000       3.05305000      12.02602000      -0.00018900      -0.00014500       0.00020100
V       -1.48324000       4.50001000      10.55104000      -0.00025100       0.00016900       0.00042400
V        7.54164000      -1.53381000       1.56099000      -0.00014800       0.00018000       0.00023600
V        9.01488000      -0.03416000       0.04420000       0.00018400      -0.00011000      -0.00029700
V        2.97708000       8.98753000       5.94103000       0.00022100      -0.00073900       0.00065500
V        6.12254000      -5.96229000       6.01876000       0.00042800       0.00000600       0.00064700
V        7.55793000      -4.49359000       4.51716000       0.00039500      -0.00042300       0.00038800
V        9.07259000      -3.02052000       3.09125000       0.00042300      -0.00024600       0.00011000
V       10.57437000      -1.53569000       1.57763000       0.00019400       0.00037400      -0.00015700
V       11.96772000       0.09248000       0.12026000       0.00032400      -0.00050400      -0.00004900
V       -1.45203000       1.49168000       1.56417000      -0.00006500       0.00072900       0.00060000
V        0.00272000       3.05985000       0.01993000       0.00038600      -0.00011100       0.00097100
V        1.51591000       4.54526000      -1.51989000      -0.00023500      -0.00033500       0.00005800
V        3.02367000       6.04325000      -2.97944000      -0.00019300       0.00006300      -0.00042500
V        4.51783000       7.54414000      -4.47713000      -0.00044300       0.00069500      -0.00035200
V        0.02811000      -0.00298000       3.00929000      -0.00025600       0.00031200      -0.00019900
V        1.53621000       1.52808000       1.47550000       0.00033700      -0.00045100       0.00029300
V        4.48489000       4.62926000      -1.52292000      -0.00009800       0.00021800      -0.00040700
V        5.99794000       6.07164000      -3.01897000      -0.00007600       0.00087100      -0.00034500
V        1.52014000      -1.50733000       4.46097000      -0.00028300      -0.00019700       0.00019400
V        3.02790000      -0.01382000       2.99858000      -0.00023500      -0.00018700       0.00080200
V        4.56905000       1.49796000       1.65460000      -0.00015100      -0.00019600      -0.00017300
V        7.43733000       4.60059000      -1.61767000      -0.00024700       0.00006600      -0.00102200
V        3.05236000      -2.87796000       5.92077000      -0.00003300      -0.00057800       0.00061300
V        4.51241000      -1.52434000       4.48229000      -0.00057200      -0.00030000       0.00065400
V        6.05216000      -0.06263000       3.05240000      -0.00062400      -0.00075100       0.00067700
V        7.46535000       1.44853000       1.62755000      -0.00062100      -0.00028100      -0.00023900
V        6.07281000      -2.98701000       6.00944000      -0.00014600      -0.00058000       0.00027600
V        7.58122000      -1.51582000       4.55331000      -0.00014000      -0.00065500       0.00026600
V        9.07960000      -0.02869000       3.09457000      -0.00017400       0.00015900      -0.00007100
V       10.58380000       1.38389000       1.62746000      -0.00035400      -0.00014300      -0.00056900
V        4.52443000      10.53002000      -4.49040000      -0.00014300       0.00046500      -0.00005300
V       -1.50129000       4.55767000       1.54565000      -0.00022100       0.00039700       0.00090100
V        7.53761000      -1.48527000       7.54196000      -0.00037200      -0.00003700      -0.00000200
V        9.06003000       0.01968000       6.03177000       0.00002900       0.00015600      -0.00059900
V        6.01759000       9.04379000      -2.99173000      -0.00017200      -0.00013600      -0.00000600
V       -0.03448000       3.03345000       3.06437000       0.00000100       0.00006700       0.00022000
V        1.48219000       4.54452000       1.46933000      -0.00010000       0.00027600       0.00017000
V        2.98511000       6.10510000      -0.03679000      -0.00000300      -0.00003600      -0.00009000
V        0.00419000       0.01173000       6.01661000      -0.00032700      -0.00035900       0.00013000
V        1.48367000       1.46863000       4.54411000      -0.00005000      -0.00006200      -0.00006300
V        6.02163000       6.09541000      -0.07659000      -0.00019000      -0.00034500      -0.00039800
V        1.50542000      -1.46604000       7.51251000       0.00007100      -0.00054600      -0.00034600
V        3.01749000      -0.00217000       6.03188000      -0.00039400      -0.00017800       0.00031200
V        4.54782000       1.48464000       4.56111000      -0.00005100      -0.00029600       0.00032600
V        7.43271000       4.53961000       1.57855000      -0.00045600      -0.00049600      -0.00063200
V        3.08996000      -2.90413000       9.19392000      -0.00017700      -0.00015900      -0.00025400
V        4.53762000      -1.49658000       7.54822000      -0.00004100       0.00017100       0.00005000
V        6.03795000      -0.01767000       6.04717000       0.00038200      -0.00041600      -0.00014500
V        7.52454000       1.49528000       4.55029000      -0.00034100       0.00004400      -0.00033600
V        9.10180000       2.93651000       3.09422000      -0.00023600       0.00007700      -0.00013300
V       10.54246000       4.46859000       4.52706000      -0.00024300       0.00014800      -0.00005100
V        4.48938000      -1.49972000      10.60652000       0.00019100       0.00017100       0.00008000
V        6.01113000       0.02064000       9.05607000       0.00014000       0.00042000       0.00029600
V        7.52630000       1.48127000       7.52726000       0.00030600       0.00007200      -0.00051300
V        1.54310000      10.52491000      -1.53269000       0.00021600      -0.00003400      -0.00050200
V        4.50592000      10.53416000      -1.53448000      -0.00006400       0.00005000      -0.00004400
V       -1.54165000       4.49503000       4.54693000      -0.00024600      -0.00012900       0.00035100
V        1.48195000       7.57038000       1.47831000      -0.00016900       0.00022100      -0.00017700
V        3.06975000       8.99389000      -0.04596000       0.00039200      -0.00021700      -0.00007700
V        5.99382000       9.04502000      -0.05010000       0.00040700       0.00032800       0.00018500
V       -0.01083000       3.00409000       6.01147000      -0.00026500      -0.00011400       0.00008600
V        2.89799000       6.00138000       3.01830000      -0.00035200      -0.00014200      -0.00009600
V        4.51217000       7.54171000       1.48735000       0.00001400      -0.00000700      -0.00038300
V        7.53692000       7.54304000       1.43015000       0.00025000       0.00022800      -0.00020300
V        1.50471000       1.46351000       7.51580000       0.00012100      -0.00014800       0.00007600
V        3.01034000       2.97967000       6.05123000      -0.00017800       0.00014500      -0.00002300
V        4.51605000       4.42122000       4.48426000      -0.00039600      -0.00023700      -0.00067500
V        6.13673000       6.01271000       2.95013000       0.00045300      -0.00002100      -0.00101300
V        9.06627000       6.00529000       3.02536000      -0.00021300      -0.00016400      -0.00038700
V        3.03076000      -0.03003000       9.01760000       0.00056500       0.00004100      -0.00017300
V        4.54709000       1.49341000       7.54216000       0.00019400       0.00007700      -0.00011900
V        6.05076000       2.96686000       6.08600000       0.00050300      -0.00010000       0.00014600
V        7.57663000       4.38785000       4.48076000       0.00037700       0.00011900      -0.00020200
V       -5.94562000       6.05242000       5.97627000      -0.00010900      -0.00016300       0.00051700
V        4.51392000       1.46168000      10.54042000       0.00061200       0.00070400       0.00014900
V       -1.48532000      10.56627000       1.54194000       0.00024900       0.00043700       0.00026100
V        0.10102000      12.06624000       0.03579000       0.00046700      -0.00028800      -0.00026700
V       -4.46720000       4.55820000       7.47869000       0.00029100      -0.00057600      -0.00010700
V       -3.01570000       5.92291000       5.99474000       0.00016400       0.00023500      -0.00000800
V       -1.68124000       7.60735000       4.66174000       0.00027700       0.00049300       0.00049100
V       -0.08513000       9.06475000       3.06030000      -0.00022600       0.00081100       0.00043900
V       -3.03339000       3.05102000       9.03725000       0.00049600       0.00025400       0.00027400
V       -1.53023000       4.50700000       7.55514000      -0.00009900       0.00078600      -0.00007400
V       -0.02871000       6.01003000       6.04710000      -0.00032400       0.00003600      -0.00015200
V        1.45729000       7.55464000       4.53609000      -0.00003700       0.00026600       0.00033600
V        2.98753000       9.07086000       2.98876000       0.00037300      -0.00041300      -0.00036800
V       -1.49291000       1.56992000      10.47556000       0.00087000       0.00053400      -0.00015300
V       -0.01803000       2.99969000       9.03401000       0.00060300       0.00022200       0.00020400
V        2.93408000       5.97458000       6.03337000       0.00020800      -0.00034600       0.00027100
V        0.06543000       0.00919000      11.99894000       0.00028000       0.00072700       0.00005900
V        3.04562000       2.99213000       9.10090000       0.00032100       0.00080400       0.00007800
V        4.50696000       4.42149000       7.66196000       0.00016200       0.00010300       0.00011400
W        5.85802000       2.86476000      -0.13263000      -0.00085800      -0.00085000      -0.00088700
W        2.94695000       3.00454000       3.06263000      -0.00064800      -0.00036100       0.00124200
W       -0.03883000       6.04909000       3.04837000      -0.00079400      -0.00007700      -0.00006400
W        1.49779000       4.49416000       7.57742000       0.00015300       0.00011500      -0.00052100
W        1.54557000       1.48778000      10.56681000      -0.00040200       0.00007500       0.00014500
Zr       9.01719000       3.07707000       0.02785000      -0.00095500      -0.00031600      -0.00055400
Zr       6.03917000       6.04263000       6.10622000       0.00021700      -0.00026400      -0.00023600
