124
Lattice="-7.545998088651924 7.546311014689217 7.54745406786806 7.5469299715897655 -7.547915183884702 7.549990181031429 7.5460172019474445 7.547934301337258 -7.5490582840653" Properties=species:S:1:pos:R:3:forces:R:3 energy=-1126.875973359271 free_energy=-1126.875973359271 stress="0.004750760456213941 0.0008216690923255829 -0.0006969891013579063 0.0008216690923255829 0.005591549551864968 -7.975945016643514e-05 -0.0006969891013579063 -7.975945016643514e-05 0.004942729922676483" pbc="T T T"
Cr       3.07680482      -2.95005967       3.00384574      -0.00037978       0.00259338       0.00174741
Cr       3.04320798       9.01944570      -2.97563471      -0.00020281      -0.00042200       0.00084436
Cr       4.51231490       7.56332127      -1.52916150      -0.00090598       0.00026176      -0.00020828
Cr       6.06057503       2.95127192       3.06615119      -0.00018575       0.00070102       0.00009443
Cr       1.49018100       4.51746667       4.53631278       0.00016700      -0.00067073      -0.00124165
Cr      -4.51386834       7.53415448       4.56043483      -0.00072268      -0.00110491       0.00100447
Ti       2.79949112      -0.22696393       0.24145759      -0.00185814       0.00117695       0.00000572
Ti       4.56417601      -4.52096910       7.55760356       0.00083130      -0.00081593      -0.00011235
Ti       4.53496760       4.53057527       1.49891947      -0.00004150       0.00056451      -0.00130963
Ti       1.56327313      10.53932200       1.52426969      -0.00095713      -0.00313825      -0.00044854
Ti       4.50426066       7.54354409       4.41658392      -0.00051197      -0.00138620      -0.00027511
V        0.06523893       0.05315626       0.12193084      -0.00276428       0.00461749      -0.00328423
V        1.51123012       1.48582424      -1.50839902       0.00113442       0.00030412      -0.00297888
V        3.03589126       3.04092406      -2.98893105      -0.00080161       0.00077077       0.00100303
V        4.52689809       4.51635888      -4.49510592       0.00115562       0.00084601       0.00015246
V        5.92005503       6.06219844      -5.97935457       0.00277805       0.00092889      -0.00100021
V        4.45535129       1.43064796      -1.52207523       0.00078758       0.00071801      -0.00031812
V        6.01104115       3.01721010      -3.07641982      -0.00172281      -0.00097968      -0.00011563
V        7.53847574       4.63790623      -4.57361670       0.00034330      -0.00160970       0.00190291
V        4.59912200      -1.60447703       1.56301509       0.00193685      -0.00048488       0.00108770
V        5.99273569      -0.06310430       0.02935436       0.00006629       0.00058349      -0.00050739
V        7.47271509       1.45739661      -1.57857616      -0.00005397      -0.00058575       0.00020639
V        9.08654449       3.08264535      -3.12739175       0.00103396       0.00082731       0.00047670
V        4.51677311      -4.49597764       4.49179148       0.00062975       0.00045262       0.00098386
V        6.04940690      -3.04273157       3.01219620      -0.00163024       0.00106635      -0.00089059
V        7.52733214      -1.49884764       1.52679692       0.00154870       0.00037162      -0.00030374
V        9.00868221      -0.01636834       0.01110672       0.00037899      -0.00050701       0.00062484
V       10.51247870       1.43039433      -1.60217748      -0.00186715       0.00113677       0.00007058
V        6.12115611      -5.96929917       6.00465214       0.00008805       0.00120128      -0.00008926
V        7.54903236      -4.48242465       4.50794095      -0.00051806       0.00149267      -0.00083615
V        9.05544712      -2.98199899       3.07200823      -0.00050092       0.00003506       0.00118864
V       10.53436106      -1.51376388       1.55387231       0.00106333      -0.00028694      -0.00019630
V       11.98562413       0.08085209       0.06752632       0.00007782      -0.00060348       0.00009606
V       -1.48662845       1.48495480       1.58021024      -0.00076243       0.00066915       0.00158285
V       -0.02747325       3.04861845      -0.01434209       0.00109057      -0.00002788       0.00085837
V        1.52336522       4.55095657      -1.52161790      -0.00027626       0.00114060       0.00032362
V        3.03699533       6.04890811      -2.97496600      -0.00021409      -0.00015015       0.00081801
V        4.50183194       7.56236635      -4.47563796       0.00088981      -0.00146619      -0.00129967
V        0.10027088      -0.08278162       2.90462474      -0.00060241       0.00052365       0.00075634
V        1.45684319       1.64792002       1.52624398      -0.00197951       0.00125674      -0.00000181
V        2.96854748       2.97005686      -0.05798476      -0.00026000      -0.00050193       0.00001959
V        4.50384456       4.50902094      -1.52093450       0.00003826       0.00176436      -0.00023979
V        6.00620066       6.07459513      -3.02653119      -0.00111837       0.00004842       0.00070982
V        1.52886866      -1.53227489       4.52996600       0.00027390      -0.00061980      -0.00105757
V        2.95206720      -0.06206507       3.00180268      -0.00006524      -0.00067413      -0.00218729
V        4.51288639       1.46465710       1.56162275       0.00104528       0.00042650       0.00063163
V        7.48435842       4.59952636      -1.63316930       0.00012068      -0.00041652      -0.00105569
V        3.08045518      -2.87907672       5.91027487       0.00205487       0.00019607      -0.00227716
V        4.51460365      -1.53212934       4.48803079      -0.00124939      -0.00117798      -0.00146492
V        6.00680177      -0.03418962       3.03777544      -0.00079728      -0.00086616       0.00133302
V        7.44403828       1.46160971       1.60079158       0.00037736       0.00065821       0.00153550
V        6.08223270      -2.97671510       6.01151694      -0.00106414      -0.00008402      -0.00045478
V        7.58293506      -1.48960581       4.53389746       0.00089528       0.00048578       0.00030118
V        9.04864758      -0.00231312       3.07412188      -0.00003189      -0.00037591       0.00028793
V       10.57798606       1.38183642       1.63434066       0.00018642      -0.00113884       0.00016034
V       -3.01744040       2.98466412       3.06565816       0.00107993       0.00119741      -0.00045341
V       -1.48934780       4.55220622       1.53477577       0.00065165      -0.00061273      -0.00000626
V        0.01625017       6.07311667      -0.03398063      -0.00096574      -0.00088863      -0.00134226
V        1.52271530       7.58857717      -1.53676031      -0.00074752      -0.00012020      -0.00006101
V       -1.51331103       1.48538714       4.55391971      -0.00030685       0.00030666      -0.00068080
V       -0.03316727       3.02592143       3.06977067       0.00109547      -0.00039873      -0.00127819
V        1.50295891       4.56114849       1.45477024      -0.00022879      -0.00037533      -0.00130597
V        3.01932450       6.11201332      -0.07320529      -0.00073374       0.00046373      -0.00022657
V        0.00806382       0.01624631       6.00455257      -0.00104323      -0.00001621       0.00008939
V        1.48622455       1.46924985       4.53103748       0.00001051      -0.00069401      -0.00109889
V        6.02976631       6.11371658      -0.08542156      -0.00189640       0.00027120       0.00061314
V        1.51342848      -1.43045408       7.53452250       0.00092770      -0.00139211      -0.00061625
V        3.02638478       0.01603710       6.00592986       0.00045663       0.00017763       0.00136726
V        4.54932226       1.48402877       4.53711720      -0.00044871       0.00073353       0.00043567
V        7.46086518       4.56760086       1.56158918      -0.00052344       0.00038366      -0.00035455
V        3.10508584      -2.85721836       9.20683921       0.00066230      -0.00013257       0.00104002
V        4.55371091      -1.47517721       7.55298828       0.00053022      -0.00072317      -0.00009893
V        6.05037316       0.00471053       6.04229911       0.00050576      -0.00009565       0.00056957
V        7.51760899       1.52589608       4.54080583       0.00027225       0.00033424       0.00031650
V        9.09945404       2.97061980       3.09239384      -0.00045110      -0.00050825       0.00002507
V       -4.50233247       4.48093337       4.54623373      -0.00038028      -0.00061409       0.00015954
V       -3.03703735       6.06805090       3.05520936       0.00009102      -0.00078454      -0.00060871
V       -1.51386223       7.59088506       1.48339565      -0.00087372      -0.00057593      -0.00044775
V       -0.00515232       9.04366832      -0.02995898      -0.00028241      -0.00044461       0.00010144
V        1.54943790      10.57277776      -1.51916042      -0.00027130      -0.00035423      -0.00026587
V       -3.02658811       2.99094768       6.00657770       0.00029839      -0.00158151      -0.00070332
V       -1.53310997       4.47684438       4.55015118       0.00054205       0.00027510      -0.00078705
V        1.49655358       7.58024325       1.45446612       0.00064688       0.00126254       0.00086116
V        3.08536088       9.01757413      -0.06736444      -0.00092834      -0.00004983      -0.00027178
V       -1.54045508       1.49137467       7.49809393       0.00004465      -0.00087046       0.00051556
V       -0.00528204       3.00150857       6.00752804      -0.00108691       0.00092238       0.00001706
V        2.92915038       6.01624865       3.01454800      -0.00049630      -0.00185043       0.00130366
V        4.52651917       7.54128622       1.48821994       0.00030512      -0.00020781       0.00073703
V        0.00663187       0.02039320       8.99404267      -0.00083679      -0.00011542      -0.00015579
V        1.50089784       1.47141956       7.50148745      -0.00005132      -0.00009226      -0.00010818
V        3.01868388       2.99168121       6.04748616      -0.00075368       0.00038395      -0.00117808
V        4.53413563       4.41912330       4.47577438      -0.00107619      -0.00036957      -0.00083947
V        6.14668833       6.03645866       2.94109535       0.00011895       0.00024137       0.00077058
V        1.54508912      -1.49084648      10.57076476      -0.00087609      -0.00031882      -0.00167908
V        3.05741652       0.01157002       9.01725949      -0.00095233      -0.00044215      -0.00090949
V        4.55913672       1.51557594       7.54520720       0.00041784      -0.00022692       0.00004662
V        6.04909173       2.96307500       6.08009853       0.00056213       0.00038790       0.00039814
V        7.61140593       4.38908254       4.43561024       0.00238110       0.00139053       0.00066527
V       -5.94875740       6.04257692       5.89552450      -0.00094670       0.00131728       0.00078184
V       -3.00643171       9.05020440       3.05216473       0.00069157      -0.00001098      -0.00117827
V       -1.47554139      10.61440706       1.52641355       0.00010489      -0.00066756       0.00118099
V        0.34430305      12.36536505       0.29263429       0.00398863       0.00538453       0.00537324
V       -4.47844547       4.53950747       7.49649817       0.00188203       0.00020816       0.00071303
V       -3.05270768       6.00636491       6.03835466       0.00085308       0.00014667      -0.00294255
V       -1.55545798       7.53693716       4.55144023      -0.00040195      -0.00127461      -0.00039146
V       -0.06354786       9.09484787       3.01976504      -0.00006065      -0.00034311       0.00010349
V       -3.02743225       3.03232991       9.05591201       0.00004011      -0.00037290       0.00058347
V       -1.55241811       4.49597191       7.53201740      -0.00110755      -0.00077186       0.00086313
V       -0.03572298       6.02125421       6.04919952       0.00019235      -0.00066930      -0.00021680
V        1.48602425       7.55872903       4.52871742       0.00060839      -0.00082530      -0.00004139
V        3.01710344       9.06333684       2.99641105      -0.00008048      -0.00001591       0.00055820
V       -1.48894754       1.57299073      10.48025631       0.00002033       0.00040165       0.00035733
V       -0.02708474       3.02390708       9.01915804       0.00056740       0.00080048      -0.00018857
V        2.93820181       5.97568875       6.02444541      -0.00018990      -0.00135767       0.00005950
V        0.04938430       0.07021945      12.01532410       0.00073599      -0.00047347      -0.00049168
V        3.04904869       3.01604795       9.07413993      -0.00056945      -0.00001492       0.00057806
V        4.47077759       4.44299795       7.64499278       0.00044305       0.00005635       0.00141590
W        6.00690824       2.96397477      -0.04486595       0.00014080       0.00116414      -0.00006485
W        2.97807956       2.99898008       3.06079865       0.00000273       0.00047171       0.00124401
W       -0.00879881       6.03694959       3.02737929       0.00015097      -0.00007716      -0.00023619
W        1.47952214       4.51238807       7.55924954       0.00086973      -0.00057854      -0.00055129
W        1.54480806       1.52078010      10.55878468      -0.00106600      -0.00091308      -0.00002436
Zr       9.08638574       3.08073075       0.01789666       0.00044121      -0.00045609       0.00198134
Zr       6.10963939       5.95693102       6.12250340       0.00035241      -0.00272879      -0.00067422
