124
Lattice="-7.542928046 7.540699198 7.540388523 7.547476001 -7.553831611 7.558065225 7.537725071 7.548625092 -7.553522243" Properties=species:S:1:pos:R:3:forces:R:3 stress="0.0029381342474274113 0.0005959080837937041 0.00048419755345864557 0.0005959080837937041 0.0025434898669069385 0.0006234893126209822 0.00048419755345864557 0.0006234893126209822 0.003230698746194063" free_energy=-1122.69640449 energy=-1122.68954583 pbc="T T T"
Cr       3.06283000      -2.99295000       3.03490000      -0.00008200       0.00011200       0.00004300
Cr       3.02841000       9.04099000      -2.98879000      -0.00016800      -0.00009100      -0.00004000
Cr       4.50381000       7.58408000      -1.53839000       0.00012800       0.00011200      -0.00008600
Cr       6.02612000       2.93780000       3.04186000      -0.00016400      -0.00062000      -0.00072100
Cr       1.47473000       4.51206000       4.52741000       0.00023600       0.00027300      -0.00061100
Cr      -4.50484000       7.56964000       4.56494000      -0.00003300      -0.00028800       0.00040300
Ti      -4.48788000       7.45047000       7.59116000      -0.00012900       0.00087400      -0.00001600
Ti       4.57736000      -4.54553000       7.54717000      -0.00017100       0.00082100      -0.00004900
Ti       4.36250000       4.40581000       1.32830000       0.00022800      -0.00047000      -0.00147700
Ti       1.55032000      10.57438000       1.51724000      -0.00036000       0.00039300       0.00020000
Ti       4.49870000       7.55202000       4.39281000       0.00009100      -0.00046300      -0.00055300
V        0.16840000       0.11159000       0.07058000      -0.00134000      -0.00009700       0.00095800
V        1.62286000       1.64122000      -1.46913000      -0.00050900      -0.00027200      -0.00010400
V        3.05686000       3.05724000      12.01896000      -0.00041600      -0.00007900       0.00059700
V        4.52663000       4.53606000      -4.49889000      -0.00007600      -0.00018500      -0.00018400
V        6.03450000       6.03233000      -5.97788000       0.00021800       0.00069100      -0.00025500
V        1.51917000      13.50598000       1.56529000      -0.00006400       0.00016800       0.00004000
V        4.47254000       1.55021000      -1.53593000       0.00036200       0.00043300       0.00022200
V       -1.52221000      10.56053000       4.47919000       0.00006600      -0.00047600      -0.00021900
V        7.49904000       4.55379000      -4.51432000       0.00014100      -0.00054600      -0.00012400
V       -3.00454000       5.95554000       9.12370000      -0.00010400       0.00035400       0.00086500
V       -1.53727000       7.49860000       7.56259000       0.00118100       0.00050200       0.00042900
V       -0.07150000       8.99032000       5.97014000       0.00092500      -0.00024200      -0.00042900
V        1.51887000      10.61014000       4.45278000       0.00046200      -0.00017500      -0.00038000
V       -3.02133000       3.04049000      12.03569000      -0.00063500      -0.00033400       0.00009400
V       -1.48189000       4.50348000      10.55153000      -0.00001700      -0.00053800       0.00022100
V        7.52927000      -1.51983000       1.54147000       0.00023500      -0.00026000       0.00010600
V        1.47117000       7.51134000       7.56345000       0.00078400       0.00018900       0.00033100
V        2.95473000       8.95063000       5.94302000       0.00080800      -0.00043600      -0.00029500
V        6.19289000      -5.99460000       6.00581000      -0.00075900      -0.00062300       0.00019900
V        7.58793000      -4.48793000       4.54868000      -0.00044200      -0.00090700       0.00077800
V        9.05582000      -2.99163000       3.07968000      -0.00022300      -0.00065800      -0.00047500
V       10.56131000      -1.52526000       1.56005000       0.00001900       0.00039400      -0.00051700
V       11.97543000       0.06820000       0.10422000       0.00026000       0.00028600       0.00001000
V       -1.45713000       1.47110000       1.57201000      -0.00063000       0.00068600       0.00060600
V        7.47621000      -4.51037000       7.56540000       0.00008600      -0.00027200      -0.00020500
V        1.61094000       4.50855000      -1.43020000       0.00036200      -0.00030600       0.00009000
V        3.03145000       6.05890000      -2.97125000      -0.00024500       0.00043700      -0.00015600
V        4.50746000       7.55489000      -4.49112000       0.00011200       0.00037700       0.00010400
V        7.53502000       7.54386000      -4.51205000       0.00029200      -0.00007300       0.00007500
V        1.51525000       1.60305000       1.50210000      -0.00016900      -0.00028500       0.00017200
V        4.46627000       4.51662000      -1.52034000       0.00013100      -0.00043500      -0.00050700
V        5.98516000       6.08359000      -2.99748000      -0.00008600       0.00009200      -0.00016800
V        1.51547000      -1.50185000       4.50722000       0.00033200      -0.00048600      -0.00010000
V        3.01971000      -0.01027000       3.02125000       0.00006300      -0.00019200       0.00025100
V        4.58605000       1.50993000       1.58477000       0.00078700       0.00009600      -0.00047700
V        7.46646000       4.63311000      -1.59762000       0.00129600      -0.00059800      -0.00049900
V        3.07920000      -2.85990000       5.94773000       0.00014900       0.00034000      -0.00003000
V        4.52037000      -1.53196000       4.51522000      -0.00024600      -0.00058300       0.00074100
V        6.03317000      -0.05386000       3.06077000      -0.00000700      -0.00045800       0.00023400
V        7.47016000       1.44466000       1.61790000       0.00052100      -0.00026500       0.00006800
V        6.09704000      -2.98471000       6.00761000       0.00034000      -0.00025900       0.00026400
V        7.58517000      -1.51805000       4.54702000      -0.00018800      -0.00061700       0.00088400
V        9.06527000      -0.01535000       3.07251000       0.00000400      -0.00011900      -0.00026000
V       10.58361000       1.39018000       1.61970000      -0.00001900       0.00057700       0.00067800
V        4.51228000      10.53968000      -4.49264000      -0.00020300       0.00077800       0.00064600
V       -1.49266000       4.54310000       1.54180000       0.00048300       0.00029500      -0.00003700
V        7.56667000      -1.50233000       7.52974000       0.00020600      -0.00031600       0.00013400
V        9.05461000       0.02552000       6.00108000       0.00033400      -0.00009200       0.00015500
V        5.99888000       9.04647000      -2.98521000      -0.00074100       0.00014200      -0.00005800
V       -0.02588000       3.01531000       3.05345000       0.00024500      -0.00001900       0.00052000
V        1.49758000       4.51865000       1.39533000       0.00002800      -0.00024700      -0.00003900
V        3.01255000       6.23478000      -0.08223000       0.00000400      -0.00034600      -0.00025200
V        0.00550000       0.02097000       6.03456000      -0.00002700      -0.00049500       0.00014400
V        1.46532000       1.46299000       4.53865000       0.00044000       0.00052900      -0.00077300
V        5.97556000       6.08595000      -0.07577000      -0.00046600      -0.00053800      -0.00040900
V        1.50821000      -1.44508000       7.54525000       0.00018900       0.00018700      -0.00015300
V        3.01878000       0.00551000       6.04038000       0.00013600      -0.00007100       0.00038300
V        4.56131000       1.46854000       4.54785000      -0.00004400       0.00009800       0.00019700
V        7.42508000       4.55517000       1.59159000       0.00054300      -0.00006700      -0.00065700
V        3.10880000      -2.88538000       9.21025000      -0.00019700       0.00054600      -0.00001000
V        4.55086000      -1.50321000       7.56175000      -0.00015000       0.00016200       0.00022000
V        6.04738000      -0.02593000       6.05533000       0.00052000      -0.00035100       0.00055300
V        7.53402000       1.48793000       4.54335000      -0.00024700      -0.00076100       0.00026800
V        9.09759000       2.96279000       3.09630000      -0.00016900      -0.00017000      -0.00007400
V        2.99857000      12.06409000      -3.01370000      -0.00007800       0.00034400       0.00015200
V       -3.04880000       6.06769000       3.04870000      -0.00039800       0.00014900       0.00018300
V        6.02014000       0.00626000       9.03735000       0.00047200       0.00017100       0.00008500
V        7.52725000       1.47689000       7.51575000       0.00022200      -0.00022200      -0.00067300
V        9.07586000       2.97736000       6.00766000       0.00014200       0.00042100       0.00019900
V        4.50399000      10.55479000      -1.54303000      -0.00044600       0.00061100       0.00082400
V       -1.55002000       4.48721000       4.55846000      -0.00037500       0.00061300      -0.00011000
V        1.49067000       7.58233000       1.47428000       0.00035800       0.00057200       0.00017200
V        3.08060000       9.03672000      -0.06404000      -0.00021600       0.00044500      -0.00030400
V        6.00011000       9.04022000      -0.04199000      -0.00045000       0.00026900      -0.00033000
V       -0.01519000       3.00046000       6.01348000      -0.00033000       0.00017400      -0.00039700
V        2.92788000       5.97988000       2.95341000      -0.00026900      -0.00096700      -0.00008900
V        4.52037000       7.53464000       1.48637000      -0.00051600       0.00003600      -0.00008300
V        7.52808000       7.53824000       1.45622000      -0.00000400      -0.00036300      -0.00002700
V        1.49360000       1.46410000       7.52204000      -0.00064300       0.00036600      -0.00018800
V        3.01646000       2.98995000       6.04811000       0.00000300      -0.00022100      -0.00018200
V        4.51983000       4.43010000       4.42008000       0.00011800      -0.00034700       0.00058100
V        6.06694000       5.97939000       2.90151000      -0.00043200      -0.00141300      -0.00130200
V        1.51438000      -1.50705000      10.61011000      -0.00004600      -0.00004600      -0.00009000
V        3.03605000      -0.00938000       9.03298000       0.00005400      -0.00008900      -0.00007000
V        4.53786000       1.48957000       7.54437000       0.00003400       0.00032200       0.00011000
V        6.04049000       2.95719000       6.06616000       0.00096400      -0.00010700       0.00022900
V        7.56619000       4.39190000       4.46246000       0.00022400      -0.00046100      -0.00057800
V        1.55940000      -1.50774000      13.53202000       0.00041800       0.00031500       0.00002800
V       -3.01002000       9.03641000       3.02890000       0.00006600       0.00042200      -0.00022600
V       -1.50635000      10.55273000       1.50459000       0.00036100       0.00020500      -0.00015900
V        0.06006000      12.01972000       0.02063000      -0.00005600       0.00084300      -0.00031900
V       -4.48345000       4.53979000       7.48349000       0.00033400       0.00130300       0.00012800
V       -3.01613000       6.02562000       5.98469000      -0.00006600       0.00045100       0.00084200
V       -1.54030000       7.53656000       4.53196000      -0.00031700       0.00021900       0.00019200
V       -0.04196000       9.04921000       3.02236000      -0.00051400       0.00059800      -0.00058800
V       -3.02005000       3.03352000       9.05092000      -0.00026400       0.00012300       0.00077200
V       -1.54682000       4.50517000       7.54122000      -0.00017500       0.00075000       0.00000000
V       -0.02475000       6.00389000       6.04375000      -0.00001500      -0.00005200      -0.00017800
V        1.48954000       7.54173000       4.52642000       0.00014300       0.00039600      -0.00009100
V        3.00844000       9.05924000       2.99175000      -0.00059200       0.00022900      -0.00056100
V       -1.48383000       1.55351000      10.48623000      -0.00025200       0.00006000      -0.00088700
V       -0.02532000       3.00848000       9.03078000       0.00016000      -0.00034800       0.00024300
V        2.93772000       5.97123000       6.01251000       0.00052500       0.00006500      -0.00039800
V        0.07291000       0.06413000      12.04040000      -0.00065900      -0.00072000       0.00040700
V        3.03739000       2.99845000       9.05435000      -0.00030800       0.00000600      -0.00012600
V        4.50115000       4.43552000       7.64187000       0.00034000       0.00058700      -0.00044000
W        6.05993000       2.97278000      -0.04505000      -0.00015200      -0.00021100       0.00087200
W        2.95445000       2.97913000       3.09266000      -0.00107500      -0.00105200       0.00122800
W       -0.00494000       6.01961000       3.02417000      -0.00039200      -0.00015600       0.00044900
W        1.48613000       4.50121000       7.56059000       0.00015400       0.00041600       0.00128700
W        1.53846000       1.50187000      10.57790000      -0.00077000       0.00094700      -0.00115300
Zr       9.09210000       3.08356000       0.02435000       0.00046100       0.00005800      -0.00010700
Zr       6.04916000       6.03665000       6.09518000       0.00003500      -0.00047700      -0.00081200
124
Lattice="-7.542928046 7.540699198 7.540388523 7.547476001 -7.553831611 7.558065225 7.537725071 7.548625092 -7.553522243" Properties=species:S:1:pos:R:3:forces:R:3 stress="0.0036897679839119025 2.9197779690881884e-05 -0.00013005432565602946 2.9197779690881884e-05 0.0024723990779631283 0.0007048411425677446 -0.00013005432565602946 0.0007048411425677446 0.003533305833144261" free_energy=-1122.55298906 energy=-1122.54354099 pbc="T T T"
Cr       3.05884000      -2.99582000       3.04098000      -0.00097900       0.00592700      -0.00055200
Cr       3.03429000       9.04222000      -2.98060000      -0.00283300       0.00558200      -0.00212600
Cr       4.50667000       7.59747000      -1.54121000      -0.00219200      -0.00236800       0.00015300
Cr       6.04148000       2.94445000       3.06204000      -0.01807500      -0.00694300       0.00307700
Cr       1.46655000       4.52413000       4.51823000      -0.00005400       0.00295000       0.00963200
Cr      -4.56407000       7.56141000       4.57129000       0.00882500       0.02491100       0.01730000
Ti      -4.49972000       7.43257000       7.59255000      -0.01869500      -0.00499900       0.02459800
Ti       4.57939000      -4.52609000       7.55706000      -0.00656900      -0.00439900      -0.00252100
Ti       4.37109000       4.40824000       1.32896000      -0.03806300      -0.00673100      -0.01828000
Ti       1.53475000      10.56958000       1.53344000       0.00339400       0.00580600      -0.00161100
Ti       4.48068000       7.55081000       4.38150000      -0.00065600       0.00751400       0.01394600
V        0.13561000       0.08240000       0.08095000       0.00960500       0.01920800      -0.00795900
V        1.54169000       1.54910000      -1.51565000       0.06758000       0.06421100       0.04340900
V       10.56206000      -4.46512000       4.48503000       0.00161800       0.00069600       0.00150000
V        4.52964000       4.55898000      -4.50630000      -0.00663100      -0.00705000       0.00728900
V        6.03866000       6.04919000      -5.98718000      -0.00255300       0.00000600       0.00580200
V        1.51587000      13.49924000       1.57275000      -0.00259700      -0.00069500       0.00450200
V        4.26633000       1.76591000      -1.32971000       0.33805500      -0.30096800      -0.30832200
V        5.98882000       3.06165000      -3.02820000       0.00642700       0.00440800      -0.00815400
V        7.49635000       4.56755000      -4.51223000       0.00111500       0.00860400      -0.00120400
V        4.54445000      -1.58393000       1.59651000      -0.00428000      -0.00125100       0.00227600
V        5.99016000      -0.01846000       0.05886000      -0.01351200       0.00526500       0.00674600
V       -0.09389000       9.01102000       5.99515000      -0.05731600      -0.00215000      -0.00405000
V        9.04506000       3.07456000      -3.07586000      -0.00282400       0.00219300       0.00002300
V       -3.03200000       3.04271000      12.03653000      -0.00238900       0.00230200      -0.00026500
V       -1.48606000       4.49630000      10.55882000       0.00177400       0.00622800      -0.00081500
V        7.52849000      -1.51761000       1.55464000       0.00303100      -0.00242100       0.00759100
V        9.00417000      -0.01858000       0.03077000      -0.00380300      -0.00366100       0.00165200
V        2.96209000       8.95885000       5.93934000      -0.01663400      -0.00388900       0.00441300
V        6.16154000      -5.99474000       6.00203000       0.02168300      -0.00645300      -0.00247300
V        7.56398000      -4.49696000       4.53148000       0.00197300      -0.00520100       0.01818700
V        9.04946000      -2.99060000       3.08052000       0.00336800      -0.00720900       0.01949300
V       10.56058000      -1.51468000       1.55484000      -0.00093600      -0.00623200       0.01029300
V       11.97316000       0.08956000       0.10525000      -0.00153000      -0.00859100      -0.00023200
V       -1.44524000       1.49450000       1.57129000      -0.01153700      -0.00930900       0.00297700
V        7.48875000      -4.52974000       7.54874000      -0.02594100       0.01693500       0.01653200
V        1.64242000       4.46225000      -1.42000000      -0.00547700       0.00838900       0.02006300
V        3.02983000       6.07072000      -2.97743000       0.00730200       0.00052200       0.01431900
V        4.51388000       7.57420000      -4.49736000      -0.00209700      -0.00178100       0.00053900
V        0.00767000       0.01283000       3.03362000      -0.00303800       0.00496300       0.00243900
V        1.55547000       1.60589000       1.45719000      -0.02655900       0.02164600       0.02355400
V        4.49269000       4.57581000      -1.53602000      -0.02332400      -0.04396800       0.02142200
V        5.99831000       6.10888000      -3.01263000      -0.00868900      -0.00108400       0.00974600
V        1.52511000      -1.48995000       4.50552000      -0.00321900       0.00252400       0.00340500
V        3.02227000      -0.01409000       3.02317000       0.00340900       0.01159500       0.00400800
V        4.58899000       1.50400000       1.60218000      -0.00922700       0.02686100      -0.02348900
V        7.47939000       4.65226000      -1.60145000      -0.00233400       0.00064900       0.00565500
V        3.07808000      -2.85594000       5.95295000      -0.00474300       0.00244200       0.00285700
V        4.52517000      -1.53499000       4.52856000      -0.00271800       0.00257000      -0.00082000
V        6.04306000      -0.06097000       3.07862000      -0.00556000       0.00561900      -0.00094700
V        7.48162000       1.43827000       1.64050000      -0.00453900       0.00188300      -0.00624300
V        6.10751000      -2.98858000       6.02019000      -0.01178700       0.00347300      -0.00499700
V        7.59054000      -1.52793000       4.56762000       0.00188600      -0.00249800       0.00181900
V        9.07378000      -0.01784000       3.08841000      -0.00391100      -0.00292200      -0.00164400
V       10.58621000       1.40064000       1.62483000      -0.00432500      -0.00484200       0.00089600
V       -3.01159000       3.01094000       3.06136000      -0.01083600       0.00090200       0.00402300
V       -1.47777000       4.55767000       1.54860000      -0.01524300      -0.00225800       0.00084700
V        0.02878000       6.04138000      -0.01455000      -0.00671400       0.00498800      -0.00443700
V        9.05522000       0.01670000       6.02066000      -0.00238400       0.00725900      -0.00539200
V        6.00885000       9.06639000      -2.99333000      -0.00766400       0.00292000       0.00513100
V       -0.01131000       3.03400000       3.04460000      -0.01060400      -0.00872100       0.00662900
V        1.51133000       4.51115000       1.38838000      -0.01817800       0.01064100       0.00841100
V        3.02568000       6.22961000      -0.08456000      -0.01691600       0.01376400       0.01095100
V        0.01447000       0.03907000       6.02526000      -0.00235000       0.00057400       0.00459900
V        1.47438000       1.47856000       4.53173000      -0.00624100      -0.00322600       0.00711800
V        5.99230000       6.10776000      -0.07304000      -0.02249600       0.00364300      -0.00898100
V        1.51788000      -1.43666000       7.54114000      -0.00550500      -0.00289700       0.00459500
V        3.02618000       0.01362000       6.04409000      -0.00215800      -0.00149700       0.00264800
V        4.56878000       1.46779000       4.55628000       0.00019100      -0.00054600      -0.00371600
V        7.43817000       4.56499000       1.59874000      -0.01668000      -0.00671600      -0.00764700
V        3.11740000      -2.87732000       9.21179000      -0.00528800      -0.00055300       0.00161500
V        4.55829000      -1.49379000       7.57693000      -0.00633500       0.00054400       0.00094600
V        6.05426000      -0.03284000       6.07196000      -0.00344000       0.00488900       0.00025600
V        7.53996000       1.48003000       4.56258000       0.00041200       0.00183100      -0.00270400
V        9.10876000       2.95929000       3.10395000      -0.00749900       0.00317800      -0.00526700
V        2.99967000      12.06041000      -3.01176000      -0.00561100       0.01365600       0.00593700
V       -3.06094000       6.09762000       3.07665000      -0.00266600      -0.00384100      -0.00502400
V        6.00806000       0.01977000       9.07401000      -0.00096500      -0.00188700      -0.00863900
V        7.52016000       1.46751000       7.53864000      -0.00027500       0.00471100      -0.00204800
V        1.53064000      10.52138000      -1.53964000      -0.00488400       0.00864800      -0.00464200
V        4.50424000      10.55410000      -1.54381000      -0.00232000       0.01297800       0.00238400
V       -1.55384000       4.52087000       4.56224000      -0.00359400      -0.00467200       0.00535600
V        1.47381000       7.57158000       1.48818000       0.00204100       0.00984900       0.00181400
V        3.06465000       9.03013000      -0.04975000       0.00397600       0.01238700      -0.00484900
V        5.99489000       9.05091000      -0.05373000      -0.00030500       0.00077700       0.00358500
V       -0.01442000       3.02244000       6.00284000      -0.00184600       0.00020300       0.00650500
V        2.90422000       5.97625000       2.95712000       0.01093200       0.00850100       0.00319500
V        4.50947000       7.53689000       1.48502000       0.00009300       0.00669300       0.00418200
V        7.52031000       7.54226000       1.43721000      -0.00338000      -0.00297900       0.00866000
V        1.49873000       1.47700000       7.51364000      -0.00627200      -0.00207600       0.00642200
V        3.01518000       2.99468000       6.04771000       0.00002800       0.00124700       0.00738900
V        4.50930000       4.42662000       4.42580000      -0.00020400       0.00371200       0.00098600
V        6.06023000       5.98534000       2.90941000      -0.01432600      -0.00430000      -0.00892300
V        9.04707000       6.03097000       3.04324000      -0.01187800       0.00715400       0.00580300
V        3.03580000       0.00069000       9.04375000      -0.00706400       0.00237100       0.00312600
V        4.54131000       1.49144000       7.55521000      -0.00496200       0.00009400       0.00531200
V        6.04036000       2.94989000       6.08008000      -0.00199100       0.00167500       0.00131200
V        7.55832000       4.38036000       4.46881000      -0.00263100       0.00361800      -0.00820800
V        1.53817000      -1.52807000      13.52263000      -0.00238900       0.01130000       0.00387600
V       -3.04333000       9.06606000       3.07090000       0.01213200      -0.01148300       0.01680000
V       -1.51654000      10.55635000       1.52765000      -0.00286300       0.00191900      -0.00811800
V        0.05997000      12.01949000       0.02683000      -0.00160600       0.00385800       0.00012900
V       -4.48567000       4.52696000       7.48908000       0.00465800       0.00864900      -0.00705300
V       -3.03802000       6.02099000       6.00302000       0.00956500       0.05277900      -0.00611600
V       -1.61092000       7.59006000       4.60032000       0.04521800      -0.03067700      -0.05504300
V       -0.08885000       9.06618000       3.07030000       0.01466300      -0.00244400      -0.01970100
V       -3.03148000       3.03255000       9.04955000       0.00263600       0.00471200       0.00316300
V       -1.55226000       4.51628000       7.54235000      -0.00245800       0.00332900       0.00294300
V       -0.05306000       6.03823000       6.05882000       0.00809100      -0.01072100       0.00084600
V        1.45275000       7.55262000       4.53743000       0.00390300       0.00319400       0.00572100
V        2.98184000       9.05729000       2.99734000       0.00034200       0.00452500       0.00591200
V       -1.50634000       1.55240000      10.46660000       0.00280900      -0.00363100       0.00622300
V       -0.03102000       3.01617000       9.01837000       0.00120500      -0.00016300       0.00974100
V        2.91508000       5.97964000       6.00888000       0.00061400       0.00059400       0.00552300
V        0.03265000       0.03267000      12.01312000       0.00407900       0.01466100       0.01071200
V        3.03520000       3.00378000       9.06086000      -0.00090500      -0.00272300      -0.00214600
V        4.49420000       4.43025000       7.64782000      -0.00094600       0.00239400       0.00331700
W        6.07062000       3.00836000      -0.01444000       0.00067700       0.01789900       0.01530100
W        2.96615000       2.97828000       3.08588000      -0.01258100       0.00933500       0.01492200
W       -0.02446000       6.03960000       3.04018000       0.00629000      -0.00712500      -0.00534100
W        1.47985000       4.51295000       7.55684000      -0.00103900      -0.00064500       0.00828200
W        1.51371000       1.49692000      10.56396000       0.00256800       0.00402900       0.01178400
Zr       9.09497000       3.07929000       0.02485000       0.00539000      -0.00896000      -0.00712200
Zr       6.01854000       6.02475000       6.09477000       0.00508000      -0.00010800       0.00077400
124
Lattice="-7.542928046 7.540699198 7.540388523 7.547476001 -7.553831611 7.558065225 7.537725071 7.548625092 -7.553522243" Properties=species:S:1:pos:R:3:forces:R:3 stress="0.00379726549558699 -0.0005539276934130133 -0.0009559495377202799 -0.0005539276934130133 0.002085213300848086 0.001043087246626736 -0.0009559495377202799 0.001043087246626736 0.0037743903646406275" free_energy=-1122.21967169 energy=-1122.20981638 pbc="T T T"
Cr       3.06007000      -3.00029000       3.04028000       0.00008400       0.00387600      -0.00017800
Cr       3.03771000       9.03787000      -2.97938000       0.00017900       0.00711000      -0.00295900
Cr       4.50841000       7.59944000      -1.54180000       0.00151200       0.00416700      -0.00527200
Cr       6.05633000       2.94977000       3.05860000      -0.01308300      -0.00369500       0.00788900
Cr       1.46702000       4.52226000       4.50989000      -0.00143100       0.00367400       0.00964300
Cr       2.97624000      -0.01469000      12.11445000      -0.02924500       0.00273900       0.00027700
Ti      -4.48423000       7.43711000       7.57120000      -0.04671100       0.00444700       0.04307200
Ti       4.58414000      -4.52122000       7.55946000      -0.01110700      -0.00045300      -0.00312700
Ti       4.40303000       4.41448000       1.34329000      -0.05774700      -0.02289600      -0.04031000
Ti       1.53129000      10.56478000       1.53432000       0.00218500       0.00559400      -0.00068300
Ti       4.47998000       7.54213000       4.36922000       0.00034100       0.00421400       0.00892400
V        0.12745000       0.06658000       0.08821000      -0.00481100       0.01787200      -0.00973100
V        1.49047000       1.48232000      13.54564000      -0.00280800       0.03992400       0.03164900
V       10.56134000      -4.46758000       4.48432000      -0.02046100       0.01849700       0.02343600
V        4.53429000       4.56470000      -4.51078000       0.00247900      -0.00226800       0.00971900
V        6.04196000       6.04928000      -5.99172000       0.00157300       0.00843500      -0.00272300
V        1.52141000      13.50047000       1.56710000      -0.00027300       0.00453500       0.00458700
V        3.97916000       2.01893000      -1.06870000       0.37578400      -0.34710000      -0.36141600
V        5.98430000       3.05756000      -3.02327000       0.02770400       0.04105200      -0.02014900
V        7.49526000       4.56100000      -4.51111000       0.00372500       0.00930700      -0.00611800
V        4.54655000      -1.58178000       1.59384000      -0.00165500       0.00292700       0.00260000
V        6.00279000      -0.02417000       0.05234000       0.01799600      -0.01829700       0.04076800
V       -0.04380000       9.01287000       5.99846000      -0.06644400      -0.00683800      -0.01073000
V        1.50524000      10.61287000       4.46334000      -0.00785200      -0.00120700       0.00264700
V       -3.03142000       3.03997000      12.03638000      -0.00698400       0.00025600      -0.00333100