127
Lattice="11.70768973389371 -0.002250307332512871 -0.0019466255880301723 -0.002249862950098287 11.710222439864033 0.0004896967677449288 -0.0019465675636481234 0.0004893274348689812 11.712193634487997" Properties=species:S:1:pos:R:3:energies:R:1:forces:R:3 energy=-1140.1836287737688 free_energy=-1140.1836287737688 stress="-0.00506747273841912 -7.2743047137785e-05 0.0006485762319388974 -7.2743047137785e-05 -0.004907700017706818 -0.0004020414268273638 0.0006485762319388974 -0.0004020414268273638 -0.004756820510187487" pbc="T T T"
Cr       0.01122992       8.77494394       0.00154812      -7.55715179       0.00035056      -0.00152936      -0.00113770
Cr       4.41540919       4.37175328       1.44237234      -7.55015227      -0.00195059       0.00040753       0.00173031
Cr       4.42057615       7.32543730       1.44021636      -7.76963497       0.00254717      -0.00052096      -0.00246480
Cr       8.74645390       2.95775061       5.85266338      -7.24692199      -0.00180134       0.00072099       0.00186801
Ti       0.08682670       2.83523752       3.01186756      -7.99453849       0.00159494      -0.00049586       0.00260514
Ti       1.46240683       7.32666848       4.40044094      -8.35581535      -0.00012307       0.00092036      -0.00117049
Ti       2.86497114       0.04973902       5.79917525      -7.85500715      -0.00019471      -0.00205587      -0.00041896
Ti       2.85841215       2.88484219       5.78165233      -7.90014506      -0.00154721       0.00091728       0.00017304
Ti       2.94121492       8.75559229       5.87164210      -8.40312130      -0.00067028      -0.00072365      -0.00025395
Ti      10.27089229       1.46634155       7.31140764      -8.69750162      -0.00235805       0.00029754       0.00080726
Ti       8.76996262       8.78407432       2.93397609      -7.96691077      -0.00153654      -0.00099387       0.00120267
V       -0.00813654      -0.01218860       0.00017115      -9.93061308       0.00078786      -0.00055357      -0.00136722
V        1.47417077       1.46773439       1.39335965      -9.12625286       0.00036981      -0.00168298      -0.00067446
V        0.02077507       0.01689155       2.95369412      -9.22397924       0.00092557      -0.00563701       0.00089911
V        0.04287303       0.00627292       5.80329246      -9.18567898      -0.00166742       0.00229159      -0.00112814
V        1.44274530       1.46338185       7.38403662      -8.86697554       0.00119316      -0.00085219       0.00033401
V        0.00450613      -0.01819497       8.80437154      -9.79953403       0.00057937      -0.00073095       0.00093465
V        1.47345046       1.46882382      10.24972150      -9.30748861       0.00036787       0.00028667      -0.00003144
V       -0.00223350       2.91654220      -0.00022394      -9.29055708       0.00076175      -0.00071855      -0.00010597
V        1.47354265       4.39920716       1.46144684      -9.17758122       0.00067108      -0.00056944       0.00097730
V        1.47612951       4.47635136       4.39895643      -8.82300246       0.00050276       0.00048258       0.00004075
V        0.03297402       2.92783867       5.82988117      -8.84064590      -0.00153812       0.00073777       0.00548517
V        1.46201880       4.39313767       7.32120946      -8.96398333       0.00076280       0.00033948       0.00071741
V       -0.00011148       2.94004734       8.80593532      -9.38773477      -0.00072672       0.00134302       0.00046094
V        1.45488102       4.40285848      10.25551754      -9.08372668       0.00055414      -0.00140546      -0.00029886
V        1.48432185       7.29735370       1.48740351      -9.57218546       0.00163872      -0.00117906       0.00076872
V       -0.00728392       5.85172282       2.95085892      -8.95405280       0.00077843       0.00036853       0.00106136
V       -0.01220058       5.86846066       5.87308643      -9.02020809      -0.00178024       0.00111104       0.00109758
V        1.46986597       7.32563532       7.31635481      -9.05997074      -0.00159030       0.00016980      -0.00005051
V       -0.00853351       5.85846933       8.76737985      -8.98837847      -0.00043253       0.00030972       0.00252440
V        1.46946417       7.30259792      10.24392013      -9.16236452      -0.00064504       0.00043460       0.00031500
V       -0.00830445       8.79187197       2.93492122      -9.50159663       0.00217700       0.00040409      -0.00016625
V        1.46471774      10.18599861       4.40333019      -9.17727145       0.00094600       0.00130566       0.00080723
V       -0.00330505       8.77847780       5.85950267      -9.37798795      -0.00028343       0.00106647      -0.00006426
V        1.46359137      10.24794968       7.30510849      -9.26093114       0.00013247       0.00045881       0.00054123
V       -0.01037807       8.79009998       8.76738766      -9.52123494      -0.00021122      -0.00092721       0.00124582
V        1.47085024      10.25018104      10.22820362      -9.39711562      -0.00052757       0.00179999      -0.00084679
V        2.92618015      -0.00330420      -0.01320733      -9.38719508      -0.00119238       0.00031339      -0.00163392
V        4.38835039       1.44783774       1.46213850      -9.13168248       0.00177738      -0.00118723      -0.00248714
V        2.87882517       0.04184734       2.95272533      -9.19382034      -0.00145906       0.00105880      -0.00137202
V        4.45129141       1.45555969       4.37029715      -8.79795123       0.00093138      -0.00161885       0.00079835
V        4.34909271       1.45736670       7.31417869      -8.94778271      -0.00201413       0.00048078      -0.00086788
V        2.92820560      -0.00868923       8.78440180      -8.93005999      -0.00161294       0.00012414      -0.00053729
V        4.38566070       1.45708701      10.25059119      -8.98652461      -0.00088104       0.00018848      -0.00147808
V        2.94201929       2.91520609      -0.02105031      -9.04127499      -0.00101486       0.00029048      -0.00134587
V        2.90382243       2.88829070       2.94915821      -8.82591232       0.00551363       0.00103990      -0.00307996
V        4.38977182       4.38446873       4.38249248      -9.39337325       0.00011253       0.00000201       0.00142120
V        4.37653943       4.40464384       7.31276803      -9.00359549      -0.00517323      -0.00405021      -0.00515910
V        2.92596264       2.93250259       8.78607058      -8.90924886      -0.00067189       0.00039000      -0.00113369
V        4.39204537       4.38472450      10.23117449      -9.08246429       0.00274585       0.00254744      -0.00099902
V        2.94813400       5.84721418      -0.01863176      -9.16379509       0.00132714       0.00060038      -0.00074578
V        2.94819211       5.86826657       2.95421799      -9.60586731       0.00101346       0.00108307      -0.00085148
V        2.95099857       5.88007381       5.86402394      -9.34725139      -0.00028560       0.00093229      -0.00087558
V        4.39126378       7.32095978       7.34066481      -9.23576996       0.00157423       0.00032569       0.00060118
V        2.92837350       5.85312770       8.77757068      -8.96522890      -0.00185577       0.00069421       0.00077897
V        4.39662848       7.32459256      10.23324228      -9.09754933      -0.00018985       0.00101419      -0.00077589
V        2.92943832       8.80961597      -0.01375536      -9.58766265      -0.00006051      -0.00155069      -0.00107239
V        4.40485507      10.26064984       1.47313656      -9.40135552      -0.00190416       0.00171969       0.00182521
V        2.94105227       8.79443379       2.94467931      -9.93546610       0.00048536       0.00057388      -0.00137268
V        4.37787852      10.26037781       4.38966789      -9.34848728      -0.00008172       0.00010659      -0.00011858
V        4.36486764      10.23357028       7.30218577      -9.02520835      -0.00395697       0.00425895      -0.00387369
V        2.91865629       8.78913185       8.78361813      -8.97904252      -0.00174813      -0.00039410      -0.00019440
V        4.39105836      10.25060755      10.24474640      -9.03906130       0.00191507      -0.00137986      -0.00072767
V        5.85534102      -0.00176453      -0.00529066      -8.92145852       0.00090414       0.00114287      -0.00050263
V        7.31806015       1.45627834       1.45391854      -9.05864353       0.00047422      -0.00111773       0.00224703
V        5.86186443      -0.00806135       2.92017607      -8.93072484       0.00097010      -0.00089854      -0.00019609
V        7.30803870       1.46164412       4.35819587      -9.05766314      -0.00119895       0.00106785      -0.00024341
V        5.85680511      -0.00238051       5.87233595      -9.03743402       0.00006459       0.00097675      -0.00095162
V        5.85792085       0.01116446       8.76928070      -9.00816543       0.00079805       0.00020450       0.00043597
V        7.30026197       1.46100200      10.27950987      -9.20909528       0.00064913      -0.00087818      -0.00004009
V        5.85761175       2.92408676      -0.00582921      -9.03350777       0.00179117      -0.00018506      -0.00158720
V        7.32339708       4.38769214       1.46406985      -9.08868045       0.00228224       0.00255033      -0.00205100
V        5.86621940       2.93441525       2.91252024      -9.07779060       0.00130598       0.00012288       0.00094546
V        7.30486359       4.41695788       4.37868569      -9.14806989      -0.00066996      -0.00146100       0.00022971
V        5.85050664       2.92954739       5.86700172      -9.09947810      -0.00093744      -0.00021564      -0.00106352
V        7.30172741       4.42991508       7.32069874      -9.02838711      -0.00101624       0.00273575       0.00230069
V        5.85586700       2.91087035       8.77359699      -9.05744434       0.00038872       0.00003676       0.00072467
V        7.31600892       4.39809853      10.25162525      -9.04416702       0.00046537      -0.00015467       0.00086854
V        5.87237775       5.83905863      -0.01088460      -9.14666303      -0.00009594      -0.00144572       0.00040198
V        7.32181910       7.32040981       1.47116667      -9.16534195       0.00204883       0.00099116       0.00089319
V        5.85855398       5.86083813       2.94490324      -9.59111510       0.00190824       0.00146588      -0.00118522
V        7.32634601       7.32275347       4.39214806      -9.25889068       0.00073640       0.00074391      -0.00044890
V        5.84338599       5.87428163       5.84197355      -9.46315046       0.00111460       0.00151212      -0.00154933
V        7.30613717       7.32284863       7.31767056      -9.07677714      -0.00077656       0.00116034      -0.00043619
V        5.85620326       5.85808701       8.78080553      -8.91651205      -0.00109143       0.00036534      -0.00071006
V        7.31187147       7.31806826      10.23926756      -8.98377758       0.00084842       0.00115543      -0.00008599
V        5.86285548       8.79092364      -0.01474072      -9.03703908      -0.00001933       0.00160031       0.00009580
V        7.31360673      10.24623424       1.47200916      -8.98656694       0.00105253      -0.00234392      -0.00202346
V        5.85663962       8.77871869       2.94913492      -9.47327289       0.00146096      -0.00133219      -0.00039963
V        7.30847986      10.22493448       4.38249486      -9.05746558      -0.00103957       0.00215455      -0.00078037
V        5.82727201       8.76071626       5.84259559      -9.41030098       0.00000277      -0.00154807      -0.00129719
V        7.29404972      10.21269741       7.31718819      -9.19998180      -0.00033288      -0.00127640       0.00163460
V        5.85268534       8.78380060       8.78070497      -8.93564836      -0.00109844       0.00019734      -0.00081637
V        7.30490421      10.23635066      10.25309507      -9.05004717       0.00041126       0.00032689      -0.00006445
V        8.78159626      -0.00442451       0.00141839      -9.42474099      -0.00220383       0.00024690      -0.00056598
V       10.24741411       1.45157394       1.47696256      -9.27023312       0.00068843      -0.00090040      -0.00067246
V        8.78165358      -0.01324460       2.91744043      -8.95950724      -0.00025805      -0.00022812       0.00001923
V       10.19010036       1.44824342       4.39565948      -8.90727016      -0.00054204      -0.00075017       0.00005802
V        8.75324442      -0.02385982       5.85576378      -9.52313882      -0.00046876      -0.00016883      -0.00113203
V        8.75526699      -0.01100270       8.79504117      -9.82870264      -0.00067787       0.00167829       0.00008787
V        8.77679596       2.91414090      -0.00232249      -9.37967002      -0.00047444      -0.00089671       0.00013682
V       10.25980853       4.39039266       1.45544328      -9.03551211       0.00604768      -0.00485965       0.00560897
V        8.78396299       2.93125672       2.91565554      -9.00644574       0.00110608      -0.00073706       0.00150321
V       10.24227362       4.39259180       4.39857239      -9.05413460       0.00029278      -0.00118504      -0.00023287
V       10.24461880       4.40525513       7.32258431      -9.10141364       0.00170758      -0.00156514      -0.00076894
V        8.75871703       2.93573975       8.80393518      -9.52099761       0.00021446      -0.00132021       0.00023664
V       10.24823970       4.40240521      10.26038222      -9.25778210      -0.00236297       0.00078494       0.00113692
V        8.76488178       5.84858078      -0.00569665      -8.99564109       0.00137053      -0.00123904       0.00186106
V       10.23639084       7.30148592       1.47499830      -9.13666285      -0.00167039      -0.00094011      -0.00065484
V        8.77633896       5.85525030       2.93744679      -8.98803472      -0.00054353      -0.00006869       0.00112158
V       10.23143142       7.32815867       4.39694032      -8.97671529       0.00048568      -0.00050149       0.00096654
V        8.77174486       5.87083684       5.85622800      -9.06842049      -0.00246846       0.00066000       0.00034207
V       10.23354940       7.31427338       7.31956492      -9.22588221      -0.00269925       0.00113819       0.00271058
V        8.77156040       5.86163063       8.77723542      -8.98826417      -0.00027996      -0.00104698       0.00104813
V       10.23188310       7.30425232      10.23403411      -9.12607218      -0.00008172       0.00102531       0.00164819
V        8.76932709       8.78839844      -0.00284486      -9.04416375      -0.00004164      -0.00059075       0.00099353
V       10.22051075      10.25065788       1.48001278      -9.37737140       0.00234897       0.00138886       0.00126688
V       10.24678008      10.24689782       4.38746118      -9.31092368      -0.00150299      -0.00139389       0.00096654
V        8.77128177       8.77682377       5.85910809      -9.32636207      -0.00135243       0.00011493      -0.00028707
V        8.77274462       8.77939253       8.77828542      -9.39794105      -0.00025180       0.00127460      -0.00002696
V       10.22151193      10.24691302      10.23827915      -9.64262877      -0.00219259      -0.00123759       0.00002973
W        1.46942308      10.26881535       1.48389392      -6.92159050       0.00065199       0.00037006      -0.00120015
W        4.40771290       7.31850314       4.42307390      -6.67107818       0.00091300       0.00018707      -0.00204532
W       10.23845810       1.46291543      10.26361596      -6.68463544      -0.00023480      -0.00130890       0.00116876
W       10.24593971      10.23539460       7.31615609      -6.71382013       0.00050272       0.00004665      -0.00019917
Zr       0.00011364       5.84968707       0.00357008      -8.00770089       0.00171619       0.00124579      -0.00159177
Zr       7.27384661       1.44671918       7.34141469      -8.09632655      -0.00049044      -0.00003763       0.00098126
