127
Lattice="11.70768973389371 -0.002250307332512871 -0.0019466255880301723 -0.002249862950098287 11.710222439864033 0.0004896967677449288 -0.0019465675636481234 0.0004893274348689812 11.712193634487997" Properties=species:S:1:pos:R:3:energies:R:1:forces:R:3 energy=-1139.826627575789 free_energy=-1139.826627575789 stress="-0.00240507919779416 0.00011025276670579389 -2.4503755629856543e-05 0.00011025276670579389 -0.002146140281069525 5.056021544222866e-05 -2.4503755629856543e-05 5.056021544222866e-05 -0.002454711512581614" pbc="T T T"
Cr       0.00775697       8.78437509       0.01266568      -7.61949037      -0.00004986       0.00007590       0.00192431
Cr       4.41388652       4.37081138       1.44547356      -7.55457050      -0.00189612      -0.00161821       0.00036787
Cr       4.42081094       7.32129073       1.43949505      -7.77733831      -0.00180721       0.00286114       0.00042466
Cr       8.76439790       2.94385875       5.83612366      -7.27164132       0.00332163      -0.00400528      -0.00396921
Ti       0.00089007       2.97138378       2.92294288      -7.82233417      -0.00010691      -0.00048611      -0.00284363
Ti       1.46473543       7.32591112       4.40440084      -8.32600959       0.00021932       0.00100546       0.00152109
Ti       2.91243688      -0.00690450       5.84589256      -7.93582814      -0.00033174       0.00084766       0.00013047
Ti       2.92074449       2.94439074       5.84943221      -7.92993806       0.00015007      -0.00079136      -0.00090897
Ti       2.92852024       8.76784122       5.85927574      -8.44081325      -0.00127457       0.00070171      -0.00025983
Ti      10.26749989       1.47177067       7.31970262      -8.63661196      -0.00183588       0.00011868      -0.00197899
Ti       8.77942528       8.79344642       2.93212586      -8.00669260      -0.00186382      -0.00257400       0.00144219
V       -0.00496873      -0.00485877      -0.05339238      -9.74672902      -0.00115980       0.00368338       0.00566313
V        1.43223098       1.44003330       1.48924840      -9.14544437      -0.00088163       0.00010322      -0.00066129
V        1.42776548       1.41595628       4.34761876      -8.83016112       0.00225316       0.00149987       0.00262993
V        0.02031057      -0.02278113       5.89767351      -9.22463434      -0.00101958      -0.00199373      -0.00082555
V        1.46533007       1.46725220       7.32180812      -9.04176766       0.00170212       0.00028140      -0.00088046
V        0.01079132      -0.01346278       8.80019033      -9.83509671       0.00047664       0.00046202      -0.00092764
V        1.47857520       1.47250120      10.24959345      -9.27364025       0.00239534       0.00229576       0.00151298
V        0.00130405       2.90598372       0.00914785      -9.32013535       0.00041148       0.00146878      -0.00116957
V        1.46923828       4.40793814       1.45174022      -9.15995339       0.00148831      -0.00111561      -0.00228171
V        1.47618059       4.40696516       4.40087144      -8.99420387       0.00152765      -0.00063141       0.00028471
V        0.00861962       2.92817080       5.83665230      -9.04248290      -0.00023826      -0.00164200      -0.00114309
V        1.46916708       4.39417663       7.32340101      -8.96346908      -0.00033495      -0.00056609      -0.00149906
V        0.00852780       2.93828396       8.79636742      -9.39644792       0.00043219       0.00031624      -0.00100636
V        1.45448727       4.39878984      10.25288226      -9.09343430       0.00042196      -0.00063164       0.00054804
V        1.48779675       7.30107548       1.49000729      -9.54996980       0.00218179       0.00137935      -0.00171805
V       -0.00281951       5.84961473       2.95492567      -9.00213375      -0.00040498      -0.00019904      -0.00051875
V       -0.00528692       5.86046270       5.86667318      -9.02613547      -0.00007188      -0.00068883       0.00005861
V        1.47116727       7.32321725       7.30806308      -9.06824567      -0.00060492       0.00016914      -0.00071874
V       -0.00596895       5.85623791       8.76298088      -8.98710720      -0.00021428      -0.00023466      -0.00098334
V        1.46946026       7.30224161      10.24344499      -9.15565554      -0.00045429       0.00158212       0.00098416
V       -0.00682079       8.74617186       2.94059793      -9.30858467       0.00104279       0.00220404       0.00146738
V        1.41842228      10.28233212       4.36264346      -9.20295850      -0.00338570       0.00126044      -0.00094697
V        0.00474132       8.78903159       5.84628223      -9.39057319      -0.00162536      -0.00135667       0.00208073
V        1.47080725      10.23694586       7.31759638      -9.23377566       0.00075486      -0.00093774       0.00048413
V       -0.00810364       8.78584857       8.76662444      -9.51329334      -0.00015189      -0.00082199       0.00091009
V        1.47466390      10.25179123      10.23161502      -9.38038269       0.00346765      -0.00229518       0.00087734
V        2.91369440       0.00513702       0.00131473      -9.40359820       0.00226143       0.00123602      -0.00058171
V        4.39373312       1.44972996       1.45718791      -9.10710632      -0.00152776       0.00227865      -0.00174563
V        2.97117632       0.00896727       2.93872726      -9.18604045      -0.00138941       0.00040783      -0.00058351
V        4.38109012       1.46175232       4.39316634      -8.98644178      -0.00104675       0.00076777       0.00093461
V        4.35333429       1.45967927       7.32119282      -8.95149414      -0.00062724      -0.00058203      -0.00123828
V        2.92893057      -0.00360394       8.78285950      -8.94046612       0.00078712       0.00057415       0.00018640
V        4.38149667       1.45700693      10.25249110      -8.99477799      -0.00141178       0.00046767       0.00131962
V        2.92845208       2.90403730      -0.00569920      -9.06085555       0.00040850       0.00066898       0.00012442
V        2.91127344       2.90971613       2.92703930      -9.03782019       0.00118040       0.00120697      -0.00109316
V        4.39116782       4.38562367       4.39110905      -9.40034100      -0.00098827      -0.00060846      -0.00066242
V        4.38105808       4.40534485       7.31719848      -9.00673315       0.00087675       0.00079964      -0.00007707
V        2.92193756       2.92628668       8.78513052      -8.92377222       0.00018094      -0.00016339      -0.00044043
V        4.39159638       4.38345138      10.23467513      -9.08716104       0.00029023       0.00078157      -0.00081211
V        2.94478972       5.84442498      -0.01626146      -9.15686306       0.00003884       0.00056308       0.00000488
V        2.94156582       5.86069129       2.95998538      -9.61626103      -0.00030585       0.00033636      -0.00021553
V        2.94297491       5.87544420       5.85796547      -9.36849083      -0.00063215       0.00027811      -0.00075465
V        4.39156835       7.32041930       7.34079185      -9.23969840      -0.00003674      -0.00021509       0.00044983
V        2.92981736       5.85221357       8.77631807      -8.96208761       0.00083848       0.00030507      -0.00110620
V        4.39495171       7.32366169      10.23344197      -9.09848004       0.00019487       0.00050769      -0.00055854
V        2.92317539       8.81414371      -0.00983316      -9.56122948       0.00059493       0.00075534       0.00048557
V        4.40441744      10.25170723       1.46844194      -9.37038242      -0.00033216      -0.00172573      -0.00170557
V        2.92899073       8.80062077       2.95385394      -9.93947583      -0.00046527       0.00002790      -0.00108772
V        4.38661388      10.25116512       4.39648486      -9.32814925      -0.00111721      -0.00070901       0.00104417
V        4.37234830      10.22965212       7.30984360      -9.02534276      -0.00121516       0.00026672      -0.00071194
V        2.91849594       8.78897979       8.78342096      -8.97322276      -0.00046922       0.00074050      -0.00011739
V        4.39158969      10.24991266      10.24723505      -9.03835757      -0.00154055       0.00059428       0.00135542
V        5.85308887      -0.00148960      -0.00698438      -8.91309966      -0.00030502       0.00053063      -0.00076172
V        7.31167062       1.46080814       1.45514236      -9.04980146       0.00153333       0.00178493      -0.00237313
V        5.85510760      -0.00431018       2.92702251      -8.97077748      -0.00106232      -0.00008465       0.00009883
V        7.29935434       1.46418033       4.36229553      -9.01310562       0.00245482       0.00064536       0.00104854
V        5.85281958       0.00238602       5.87085920      -9.04633511      -0.00097393      -0.00023146       0.00055312
V        5.85970904       0.01055095       8.77067308      -9.00679757      -0.00043989       0.00036965      -0.00039080
V        7.29947290       1.46158851      10.27712133      -9.20693952       0.00091005       0.00026541       0.00076236
V        5.85440167       2.92243780      -0.00370474      -9.02665888      -0.00019608       0.00036380      -0.00049314
V        7.31795798       4.38851229       1.46391443      -9.09919155       0.00181311      -0.00104746      -0.00038017
V        5.85536785       2.93109659       2.92076582      -9.08516665      -0.00015164       0.00010298      -0.00013663
V        7.30366791       4.41152907       4.37887806      -9.15408290       0.00099079      -0.00146544      -0.00096946
V        5.85070138       2.92297325       5.86303479      -9.11506982       0.00056026      -0.00110161      -0.00118600
V        7.30670682       4.42809730       7.31812457      -9.03572956      -0.00040390       0.00023992       0.00052427
V        5.85723973       2.91175885       8.77423986      -9.04986640       0.00083769       0.00103964      -0.00106753
V        7.31654229       4.39584044      10.25151983      -9.04573138       0.00020203       0.00048121      -0.00081586
V        5.87035468       5.83753280      -0.01056035      -9.14551123       0.00075787       0.00072306      -0.00174632
V        7.32117261       7.31862041       1.47136440      -9.16885415       0.00231069       0.00255862       0.00107440
V        5.85446750       5.85648243       2.94637507      -9.58975734      -0.00018500       0.00020356       0.00069913
V        7.32434594       7.31959866       4.39317622      -9.25478178       0.00088578       0.00094861      -0.00019999
V        5.84230523       5.87175909       5.84400735      -9.45429926      -0.00039875      -0.00066821       0.00062754
V        7.30679052       7.32237791       7.31587894      -9.07828545      -0.00091154      -0.00102673       0.00051152
V        5.85681827       5.85670856       8.78140651      -8.91952989       0.00014680       0.00004071      -0.00057603
V        7.31284562       7.31829434      10.23961822      -8.98335855       0.00018721       0.00038144       0.00047946
V        5.86321108       8.78979451      -0.01420232      -9.03250650       0.00061739       0.00086206       0.00054118
V        7.30792686      10.24166264       1.46586267      -8.97223542       0.00209402      -0.00131950      -0.00118308
V        5.85470206       8.77481323       2.94988179      -9.46331638      -0.00008236      -0.00033686       0.00033671
V        7.30434108      10.22560352       4.38894020      -9.04795305       0.00067931      -0.00242825       0.00282621
V        5.82640656       8.76172893       5.84359917      -9.40082595      -0.00134949      -0.00033781       0.00028126
V        7.29642167      10.21202967       7.31789110      -9.21013102       0.00014562      -0.00023562      -0.00016210
V        5.85346700       8.78188246       8.78167062      -8.93566894      -0.00020176      -0.00068427       0.00009490
V        7.30581574      10.23712273      10.25364421      -9.05584659       0.00156736       0.00008415       0.00243933
V        8.79246180      -0.00131656       0.01068880      -9.42771854       0.00063215       0.00122625       0.00010910
V       10.27028562       1.42591103       1.49758993      -9.08056591      -0.00183975       0.00378122      -0.00536784
V        8.73051730      -0.00930272       2.92236187      -8.77137933       0.00180051       0.00016426       0.00097137
V       10.29811902       1.39839757       4.33049248      -8.90672936       0.00129025      -0.00502135      -0.00132491
V        8.77129893      -0.01446729       5.84301022      -9.54142618       0.00064724      -0.00148286       0.00043138
V        8.75477049      -0.00905784       8.79072376      -9.82473664      -0.00036018      -0.00008148       0.00129941
V        8.78116099       2.90917615       0.00089710      -9.37946626      -0.00043738       0.00078728      -0.00147122
V       10.24552326       4.39812580       1.44494013      -9.02561692      -0.00094517      -0.00046262      -0.00223290
V        8.78914357       2.91894801       2.92148097      -9.03527590      -0.00030089      -0.00016890      -0.00050900
V       10.23597223       4.39742355       4.39405545      -9.03562212      -0.00167558      -0.00249248       0.00010050
V       10.24594629       4.40373567       7.31906671      -9.10286114       0.00069497      -0.00110819      -0.00130951
V        8.76197104       2.93417277       8.79663256      -9.51978702       0.00019329      -0.00035837      -0.00174604
V       10.24823826       4.40479999      10.25335732      -9.26621468       0.00027436      -0.00025042       0.00028812
V        8.76469100       5.84953857      -0.00748788      -8.99035487       0.00018309       0.00093036       0.00014712
V       10.23324710       7.30293615       1.46884930      -9.12096680      -0.00176726       0.00137225      -0.00031213
V        8.77231141       5.85349491       2.93747752      -8.98389330      -0.00072474      -0.00011536      -0.00025637
V       10.23328223       7.32589370       4.40185616      -8.96915131      -0.00173225      -0.00008389       0.00270441
V        8.77465356       5.86673648       5.85323273      -9.06360364      -0.00001263      -0.00168773      -0.00095628
V       10.23465071       7.31183548       7.31850803      -9.23320140       0.00009066      -0.00016541      -0.00042551
V        8.77144885       5.86118955       8.77473668      -8.98485386      -0.00057613      -0.00063060      -0.00022667
V       10.23335718       7.30348089      10.23363826      -9.13473161       0.00000412       0.00069313       0.00172745
V        8.77689447       8.79539280       0.00350099      -9.05027371       0.00021394       0.00189698       0.00212661
V       10.26045861      10.29483912       1.52677859      -9.21205609       0.00405894       0.00406764       0.00328704
V       10.27180731      10.26800697       4.35598200      -9.11879941      -0.00378430      -0.00444183       0.00800663
V        8.77551833       8.78074323       5.85598800      -9.32644772      -0.00082491      -0.00163475       0.00149428
V        8.77401573       8.77949869       8.77917107      -9.39847142      -0.00019558      -0.00005294       0.00226263
V       10.21931362      10.24357165      10.23703935      -9.62713841      -0.00215945      -0.00070463       0.00266803
W        1.43208531      10.30722135       1.51296405      -7.01823512       0.00416112      -0.00435585      -0.00284767
W        4.39907905       7.31504140       4.42299402      -6.68410411      -0.00166473       0.00101038       0.00004866
W       10.24316735       1.46858491      10.25217183      -6.69086806      -0.00194124       0.00190534       0.00390142
W       10.24207978      10.23009707       7.32327044      -6.69150407      -0.00316415      -0.00273251      -0.00151411
Zr      -0.00046037       5.85243388      -0.00467959      -7.99606495      -0.00015860       0.00087391      -0.00057157
Zr       7.28201133       1.44697008       7.33356085      -8.11095946       0.00090750      -0.00062201      -0.00144294
