127
Lattice="12.093483239 -0.001965245 -0.001402732 -0.001967216 12.088895931 0.017572922 -0.001397384 0.01757218 12.092468779" Properties=species:S:1:pos:R:3:forces:R:3 stress="0.005327415148361152 -0.0008693049080347684 0.0014628537013788886 -0.0008693049080347684 0.004435203901834391 -0.0003751895965750944 0.0014628537013788886 -0.0003751895965750944 0.004618517024861583" free_energy=-1142.68129241 energy=-1142.6640398 pbc="T T T"
Cr       0.01699000       9.07337000      12.09016000      -0.00003900      -0.00007900       0.00001900
Cr       4.61102000       4.53856000       1.48537000      -0.00023100      -0.00026700       0.00021900
Cr       4.56656000       7.56371000       1.45527000      -0.00002600      -0.00001700       0.00029600
Cr       9.08295000       3.15999000       5.98439000       0.00002400       0.00029400      -0.00023900
Ti       0.27984000       2.74355000       3.34808000       0.00034800      -0.00023700       0.00023600
Ti       1.47879000       7.53098000       4.50818000       0.00021100       0.00022200       0.00007300
Ti       2.82877000       0.17395000       5.86629000       0.00026300       0.00050900      -0.00041800
Ti       2.83157000       2.97900000       5.87432000       0.00002000       0.00049200      -0.00027800
Ti       3.02800000       9.16711000       6.11261000       0.00024900       0.00009000       0.00009700
Ti      10.54791000       1.56898000       7.54931000       0.00004300      -0.00019500      -0.00003800
Ti       9.04508000       9.06508000       3.04384000      -0.00026800       0.00036300      -0.00027900
V        0.01331000      12.06720000       0.05650000       0.00047900      -0.00119400      -0.00001300
V        1.58069000       1.47911000       1.41622000      -0.00004900      -0.00035600       0.00011200
V        0.04528000       0.00753000       3.12276000      -0.00013800      -0.00012400      -0.00058100
V        0.03875000       0.11072000       5.96382000       0.00021400       0.00066700      -0.00047000
V        1.41089000       1.54407000       7.74341000       0.00008800       0.00023300      -0.00043900
V        0.00260000      12.06705000       9.13046000       0.00008500       0.00002300      -0.00057700
V        1.54373000       1.49565000      10.62505000      -0.00000800      -0.00000300      -0.00045300
V        0.03782000       2.93208000       0.09416000       0.00029800      -0.00043500       0.00002900
V        1.66673000       4.40761000       1.63123000       0.00026500      -0.00035500       0.00040400
V        1.51030000       4.74572000       4.54881000       0.00010400      -0.00015700       0.00030000
V        0.05122000       3.01026000       6.07627000       0.00013900       0.00048500      -0.00013400
V        1.46815000       4.59049000       7.58387000       0.00041500       0.00039500       0.00013800
V        0.00946000       3.08852000       9.12545000       0.00023300      -0.00013000      -0.00010000
V        1.65656000       4.45900000      10.51652000       0.00021800      -0.00022700       0.00019000
V        1.56503000       7.59439000       1.51242000      -0.00001400      -0.00026100       0.00024700
V       12.06732000       5.94059000       3.02252000       0.00025700      -0.00043700       0.00065600
V       12.03511000       6.03058000       6.14003000       0.00034200       0.00010000       0.00053900
V        1.47188000       7.56420000       7.61845000       0.00038200       0.00056900       0.00015700
V       12.09111000       6.08379000       9.06050000       0.00024200       0.00008900       0.00031200
V        1.57696000       7.64952000      10.57305000      -0.00013600      -0.00015300       0.00026400
V       12.01690000       9.09845000       3.01194000      -0.00005900       0.00003100      -0.00001500
V        1.40935000      10.47490000       4.49313000      -0.00006200       0.00074900      -0.00038100
V       12.05053000       9.10526000       6.09590000       0.00017600       0.00064700       0.00025100
V        1.44187000      10.64979000       7.61777000       0.00022700       0.00060600      -0.00019100
V       12.08651000       9.06402000       9.08694000       0.00018700       0.00023700      -0.00019000
V        1.49771000      10.56912000      10.60422000       0.00000200       0.00002100      -0.00052600
V        3.05996000      12.09818000      12.09974000       0.00012200      -0.00007000      -0.00024400
V        4.56449000       1.50936000       1.47174000      -0.00052400      -0.00035400      -0.00015600
V        2.97515000       0.11077000       3.02171000      -0.00034000       0.00018100      -0.00026000
V        4.69404000       1.57364000       4.42185000      -0.00056200       0.00022600      -0.00031600
V        4.45167000       1.57539000       7.56486000       0.00009600       0.00031500      -0.00025400
V        2.98309000       0.03479000       9.07321000       0.00015800       0.00027200      -0.00039100
V        4.52468000       1.53117000      10.59266000       0.00000800      -0.00023600      -0.00028500
V        3.10758000       3.04042000       0.03176000       0.00013200      -0.00043500      -0.00007100
V        3.10642000       3.02822000       3.00859000      -0.00015600       0.00010900      -0.00015900
V        4.56394000       4.56631000       4.50215000      -0.00015800       0.00038600       0.00031600
V        4.51814000       4.57041000       7.53519000       0.00037800       0.00053400       0.00018600
V        3.00052000       3.04901000       9.06488000       0.00043300       0.00017500      -0.00016700
V        4.54989000       4.57075000      10.56750000       0.00026300      -0.00021900       0.00002600
V        3.15884000       6.04615000       0.02461000       0.00025400      -0.00033700       0.00038100
V        3.14864000       6.03370000       2.92151000       0.00006900       0.00016100       0.00056700
V        3.06497000       6.05084000       6.09809000       0.00029500       0.00049200       0.00035200
V        4.55861000       7.54693000       7.60757000       0.00033900       0.00047000       0.00024800
V        3.02478000       6.07675000       9.06625000       0.00050700       0.00033600       0.00022300
V        4.55694000       7.58715000      10.54540000       0.00026400      -0.00020600       0.00009200
V        3.08954000       9.04091000      12.07662000       0.00033300      -0.00030700      -0.00012900
V        4.56807000      10.60457000       1.47951000      -0.00017300       0.00026100      -0.00013800
V        3.10167000       9.07550000       2.95739000       0.00051400      -0.00013600       0.00051400
V        4.52912000      10.66928000       4.40627000      -0.00021500       0.00082800      -0.00027000
V        4.53659000      10.68922000       7.62871000       0.00045200       0.00056600      -0.00018200
V        3.01269000       9.11489000       9.05898000       0.00046000       0.00022300       0.00004600
V        4.49943000      10.59483000      10.59102000       0.00020800       0.00013600      -0.00043900
V        6.05583000       0.02371000      12.08011000      -0.00007700      -0.00020300      -0.00021200
V        7.57123000       1.50097000       1.50455000      -0.00049400      -0.00065300      -0.00026900
V        6.05559000       0.02648000       2.95652000      -0.00051900       0.00016700      -0.00038900
V        7.54831000       1.56533000       4.46966000      -0.00041900      -0.00007600      -0.00028700
V        5.90654000      12.04817000       5.96774000      -0.00024900       0.00057400      -0.00044600
V        5.94637000      12.04603000       9.14345000      -0.00004900       0.00023100      -0.00017000
V        7.51070000       1.51159000      10.64295000      -0.00005500      -0.00062400      -0.00032100
V        6.05608000       3.04944000       0.02451000      -0.00014200      -0.00048300       0.00001800
V        7.60182000       4.52837000       1.53178000      -0.00022600      -0.00068100       0.00023900
V        6.05176000       3.09871000       2.92993000      -0.00035500      -0.00002700       0.00002000
V        7.59735000       4.53024000       4.55090000      -0.00037000       0.00004500       0.00036300
V        5.93363000       3.14635000       5.94328000      -0.00027900       0.00031500      -0.00033600
V        7.55187000       4.60147000       7.53009000       0.00005200       0.00036000       0.00025700
V        5.93968000       3.14889000       9.15536000      -0.00009300       0.00009900      -0.00009000
V        7.52525000       4.57910000      10.59911000       0.00017800      -0.00040500       0.00015400
V        6.04883000       6.05070000       0.02677000      -0.00006100      -0.00049600       0.00037900
V        7.56973000       7.50220000       1.46741000      -0.00030000      -0.00041200       0.00009000
V        6.07968000       6.04737000       2.96405000      -0.00041200      -0.00008100       0.00060000
V        7.56918000       7.51057000       4.56339000      -0.00039500       0.00011400       0.00057300
V        6.07767000       6.07363000       6.04109000      -0.00006600       0.00017700       0.00059500
V        7.54344000       7.56730000       7.56523000       0.00023400       0.00018700       0.00074200
V        6.04885000       6.09535000       9.05935000       0.00010800       0.00024900       0.00042800
V        7.54885000       7.56543000      10.59251000       0.00018300      -0.00018700       0.00001700
V        6.04660000       9.04295000      12.09339000      -0.00010100      -0.00023100       0.00009000
V        7.52594000      10.59497000       1.47992000      -0.00041500      -0.00014800      -0.00038700
V        6.07314000       9.05022000       2.96481000      -0.00045700       0.00018500      -0.00001000
V        7.50120000      10.62163000       4.54434000      -0.00032000       0.00015800      -0.00014400
V        6.04788000       9.10233000       6.04974000       0.00002000       0.00038400       0.00026400
V        7.49029000      10.54503000       7.56541000       0.00008600       0.00025200      -0.00001200
V        6.03348000       9.06997000       9.07794000       0.00007500       0.00010000       0.00018800
V        7.54220000      10.55880000      10.60977000       0.00007500      -0.00017200      -0.00047700
V        9.05901000      12.04682000       0.06572000      -0.00048400      -0.00055900      -0.00039700
V       10.63054000       1.43376000       1.60536000      -0.00020100      -0.00033600      -0.00030500
V        9.07042000      12.05421000       3.01101000      -0.00052500      -0.00015000      -0.00039300
V       10.40465000       1.50541000       4.62108000       0.00027700      -0.00003500      -0.00016800
V        9.04269000      11.99138000       5.97245000      -0.00005800       0.00019100      -0.00040500
V        9.05523000      11.98641000       9.21603000       0.00015200      -0.00024200      -0.00063000
V        9.06988000       3.00981000       0.06896000      -0.00009100      -0.00075600      -0.00015500
V       10.53125000       4.37056000       1.67978000       0.00012800      -0.00060600       0.00021200
V        9.08137000       2.98615000       3.02646000      -0.00039600      -0.00026000      -0.00000800
V       10.55988000       4.47010000       4.63366000       0.00022700      -0.00021100       0.00040300
V       10.54488000       4.55376000       7.55591000       0.00017300       0.00026200       0.00048100
V        9.07073000       3.16611000       9.21099000       0.00035700      -0.00040900      -0.00004300
V       10.48982000       4.49359000      10.53270000       0.00020100      -0.00037400       0.00012500
V        9.03813000       6.03387000       0.01772000       0.00017400      -0.00061700       0.00039800
V       10.63897000       7.58929000       1.53782000       0.00010300      -0.00066200       0.00030100
V        9.08628000       6.02197000       3.04770000      -0.00023700      -0.00045400       0.00044500
V       10.60050000       7.50025000       4.58191000      -0.00006700       0.00010400       0.00053900
V        9.05578000       6.09047000       6.06631000       0.00003600      -0.00004200       0.00071200
V       10.57395000       7.54993000       7.56700000       0.00008000       0.00042700       0.00026100
V        9.04570000       6.09417000       9.07805000       0.00031000       0.00006400       0.00038900
V       10.54739000       7.63072000      10.57370000       0.00027400      -0.00022900       0.00030100
V        9.05454000       9.02525000       0.02305000      -0.00021300      -0.00037800      -0.00005600
V       10.61219000      10.56778000       1.48870000      -0.00044400      -0.00050000      -0.00047000
V       10.59091000      10.62357000       4.55193000      -0.00030600       0.00016500      -0.00012300
V        9.03420000       9.03763000       6.03613000      -0.00005200       0.00030100       0.00040400
V        9.03395000       9.03479000       9.09790000      -0.00000900      -0.00000000      -0.00002200
V       10.61739000      10.51704000      10.66751000      -0.00039400      -0.00026800      -0.00064400
W        1.52884000      10.55764000       1.50379000      -0.00074100       0.00085300      -0.00062800
W        4.57083000       7.57040000       4.51566000      -0.00042200       0.00043500      -0.00023000
W       10.57803000       1.49646000      10.63957000      -0.00077900       0.00039300      -0.00061200
W       10.54837000      10.58691000       7.58570000      -0.00010800       0.00018800      -0.00011200
Zr       0.03594000       5.93360000      12.09744000       0.00035600      -0.00059800       0.00022900
Zr       7.50576000       1.58464000       7.53459000      -0.00011900       0.00001700       0.00002500
