127
Lattice="12.05239363577153 3.552520251448903e-05 -0.00021928746231963074 3.551963359022388e-05 12.055582501008777 -3.698160418695492e-05 -0.00021928845706198425 -3.698237207466351e-05 12.052580388546156" Properties=species:S:1:pos:R:3:forces:R:3 energy=-1143.4298373070505 free_energy=-1143.4298373070505 stress="0.005778458084593527 0.0018118297585761457 0.0016689873924928707 0.0018118297585761457 0.005789086590469568 0.001472635150459134 0.0016689873924928707 0.001472635150459134 0.005781634730292633" pbc="T T T"
Cr       3.06957550       9.00830481       0.02052805      -0.00172297       0.00044684      -0.00176305
Cr       8.95633089       3.00462865       3.02374178       0.00033534      -0.00155491      -0.00111285
Ti       3.00256568       6.02216846       9.03072578       0.00000671      -0.00109512      -0.00184064
Ti       9.07600160       0.03007145       9.08273774       0.00023276      -0.00096937       0.00030493
V        0.21372851      -0.08031996      -0.07693035      -0.00115177       0.00342241       0.00596694
V        1.57811196       1.41342306       1.44704997       0.00543744       0.00262095      -0.00034771
V       -0.04826108      -0.02837857       2.91585579      -0.00157901       0.00149374      -0.00387043
V        1.42431412       1.44536284       4.41321827       0.00276273      -0.00074572       0.00253438
V       -0.02363544      -0.02975636       5.96485227       0.00008440      -0.00048016      -0.00002214
V        1.42481973       1.54765252       7.37138094      -0.00098803       0.00089188       0.00199953
V        0.00686742      -0.02583488       8.98405704       0.00365841      -0.00418996       0.00401138
V        1.50436264       1.58019895      10.55289389      -0.00212703      -0.00397158       0.00254462
V       -0.01562609       2.94887759      -0.03447096      -0.00243970      -0.00097428       0.00075539
V        1.46700637       4.44764583       1.45921650      -0.00074664       0.00014409       0.00266508
V       -0.07403729       2.85108333       2.90438264      -0.00563531      -0.00411596      -0.00297176
V        1.44084705       4.46582867       4.45423255      -0.00172923      -0.00223417      -0.00228132
V       -0.07110792       2.97101135       5.90215765       0.00147163       0.00105578       0.00184383
V        1.42809116       4.48011786       7.44406584       0.00267970       0.00056524      -0.00085392
V        0.00848547       3.04878980       8.96944066       0.00074418       0.00214238      -0.00016307
V        1.46513634       4.50101324      10.54321591      -0.00139633      -0.00051536       0.00404148
V        0.00268829       5.99949452      -0.03896488      -0.00068682       0.00012007       0.00137754
V        1.53513275       7.49454947       1.47058871      -0.00267513       0.00254753       0.00057074
V       -0.04842865       5.93843185       2.97310079       0.00094545       0.00112518       0.00187109
V        1.47096228       7.47523385       4.46711068      -0.00037706       0.00126785       0.00281452
V       -0.03315004       5.97000219       5.96165850       0.00121742       0.00075318      -0.00084726
V        1.50671171       7.53179862       7.46376434       0.00134738      -0.00017989      -0.00088909
V       -0.01346198       6.01734558       9.01601402       0.00150668       0.00070857       0.00141030
V        1.52277677       7.53854245      10.59998487      -0.00089390      -0.00014207      -0.00147030
V        0.04798855       8.99920509      -0.01360155       0.00067126       0.00093093      -0.00277594
V        1.58925159      10.46189414       1.48826110      -0.00212304       0.00237021      -0.00128410
V        0.02711100       8.98261463       3.01675200      -0.00075344       0.00146015      -0.00003815
V        1.50268450      10.50736658       4.46866482      -0.00305975       0.00527012      -0.00045227
V       -0.00929923       9.01795504       5.98468087      -0.00107688       0.00135136      -0.00018100
V        1.45681552      10.47118733       7.42923155       0.00202959       0.00038302      -0.00078933
V        0.05367721       9.03238259       9.02996551      -0.00129941      -0.00063840       0.00062562
V        1.57981588      10.41658896      10.59087923      -0.00013493       0.00231429       0.00037371
V        3.07469476      -0.01742289       0.03285433      -0.00072620      -0.00158421      -0.00017057
V        4.53026877       1.48216565       1.53637849       0.00202205       0.00043694      -0.00026690
V        2.99819674      -0.04749500       2.99325571       0.00221199      -0.00065239       0.00027569
V        4.46083480       1.48019873       4.49214880       0.00195297       0.00078634      -0.00021763
V        2.99192144      -0.01661740       5.93483812      -0.00319002      -0.00054620       0.00064694
V        4.59834289       1.60685790       7.42995930      -0.00005800      -0.00002575      -0.00119664
V        4.63271610       1.58685854      10.64253628       0.00135909       0.00121856      -0.00056591
V        3.00579042       3.00015606      -0.01459470       0.00017107       0.00111508       0.00057379
V        4.45677548       4.52864367       1.50033080       0.00234372      -0.00067152      -0.00008900
V        2.92751699       2.96811869       2.96535379       0.00544855       0.00155359       0.00236308
V        4.43928145       4.50406121       4.48407913       0.00206482      -0.00082929      -0.00144791
V        2.95140845       2.99498531       5.95540397      -0.00051184       0.00083247      -0.00078230
V        4.53390530       4.50901766       7.48574003      -0.00030667      -0.00077633      -0.00089022
V        3.01694968       3.07358177       9.00482981       0.00134846      -0.00075162       0.00232345
V        4.54093946       4.53414854      10.59243851      -0.00120166      -0.00147389      -0.00229507
V        3.00314095       5.99780434      -0.00765978      -0.00254434      -0.00132251       0.00251907
V        4.48109710       7.56368576       1.49102230      -0.00282050      -0.00207251      -0.00062731
V        2.95532195       5.98251369       2.98557434       0.00115441       0.00102828       0.00036984
V        4.47852942       7.50273612       4.50252881      -0.00052201      -0.00026680      -0.00040071
V        2.97364725       6.00470972       5.97642991       0.00151508       0.00249180       0.00235176
V        4.54664872       7.55842605       7.51239215       0.00172802      -0.00191797      -0.00036373
V        4.52242604       7.59509599      10.62834414      -0.00091671      -0.00160489      -0.00073427
V        4.54165238      10.53227568       1.53050250       0.00025883      -0.00101989       0.00093260
V        3.01836171       8.99704344       3.01277223      -0.00239743       0.00382969       0.00021063
V        4.49372955      10.55121507       4.51700428      -0.00042314      -0.00209516       0.00152664
V        3.00806426       9.00302545       6.00373001       0.00078265      -0.00026657      -0.00196545
V        4.64621695      10.46447891       7.47679522       0.00118727       0.00119427      -0.00239410
V        3.05353918       8.97883380       9.03314413       0.00245852      -0.00084506       0.00257833
V        4.63644142      10.48314382      10.67454960      -0.00108218      -0.00167453       0.00099659
V        6.07204298       0.04047418       0.07617427      -0.00014625      -0.00040301       0.00082035
V        7.42962243       1.63096248       1.65664174      -0.00081791      -0.00193981      -0.00165476
V        6.02049178      -0.01083808       3.06383864       0.00110720      -0.00439000       0.00091835
V        7.50590080       1.53428147       4.55149757      -0.00081464      -0.00315471      -0.00163740
V        6.01390706       0.01523554       6.06269787       0.00143484      -0.00026956       0.00026967
V        7.52981521       1.55931481       7.52835140       0.00133395       0.00044105       0.00134825
V        6.17224041       0.03813597       9.12264708      -0.00264200      -0.00236438      -0.00199400
V        7.52545083       1.63638790      10.60054330       0.00211158      -0.00438970       0.00411231
V        6.01135660       3.06821602       0.01911790       0.00185612      -0.00011064      -0.00381630
V        7.46634976       4.55256310       1.55376581       0.00025517      -0.00100787      -0.00304168
V        5.94353359       3.03351780       3.04378967       0.00043842       0.00093261       0.00155699
V        7.48468531       4.51114430       4.52030440       0.00385497      -0.00158112      -0.00344882
V        5.98566630       3.01853076       6.02591416       0.00195422      -0.00138651      -0.00158171
V        7.52049560       4.55962700       7.53795870      -0.00051045       0.00120647      -0.00063232
V        6.02758881       3.06921389       9.04040304      -0.00107982       0.00119991      -0.00147397
V        7.50556677       4.61213333      10.52451362       0.00049477      -0.00103068       0.00036654
V        5.99557466       6.08420293       0.02772536      -0.00132923       0.00068349      -0.00216481
V        7.52367204       7.55521132       1.53893897      -0.00227879       0.00028961       0.00035269
V        5.97816964       6.04256794       3.01114686      -0.00221044      -0.00036112      -0.00276531
V        7.50339369       7.52809531       4.55343687      -0.00198809      -0.00045476       0.00291752
V        5.97467332       6.02858082       6.04007501       0.00211368      -0.00271830      -0.00249154
V        7.50602805       7.55719815       7.59308346       0.00169084      -0.00153646      -0.00100560
V        6.03310578       6.06407285       9.06726915      -0.00259964       0.00276095       0.00040500
V        7.55707382       7.60821958      10.57585174      -0.00181959      -0.00062974      -0.00006789
V        6.10216344       9.09343736       0.06182164      -0.00107609      -0.00136606       0.00043125
V        7.56894917      10.59112085       1.61672129       0.00440544       0.00266547      -0.00266054
V        6.01440546       9.04702262       3.04925836      -0.00166545      -0.00041522       0.00037124
V        7.50901689      10.54534629       4.57604823       0.00069314      -0.00040339       0.00007152
V        6.03056912       9.05461840       6.05572797       0.00076256      -0.00147169       0.00152129
V        7.53886497      10.55130374       7.57731410       0.00110838      -0.00047019       0.00009716
V        6.05792271       9.07079606       9.08867286      -0.00147771      -0.00223522      -0.00137400
V        7.57913242      10.56574776      10.68625325      -0.00544258      -0.00256309      -0.00412598
V        9.00637900      -0.05482686       3.18266895       0.00316695       0.00581924       0.00151124
V       10.45355786       1.47556249       4.50431828       0.00268231       0.00070852       0.00345286
V        9.02706184      -0.00036103       6.03757965       0.00072043      -0.00042635      -0.00117440
V       10.56127350       1.53412647       7.48208679      -0.00128971       0.00080326       0.00198937
V       10.67612810       1.63837078      10.39023185       0.00134015       0.00063359       0.00111527
V        8.96266549       3.17233542      -0.10141851       0.00097574       0.00263509       0.00477198
V       10.43545232       4.42506982       4.45905534       0.00123274      -0.00026693      -0.00060352
V        8.99701726       3.01002637       6.02874340      -0.00011265      -0.00174256       0.00015229
V       10.50048422       4.50588346       7.47755589      -0.00017144      -0.00061430       0.00049236
V        9.02396289       3.06923641       9.01136515      -0.00359306      -0.00066631       0.00037365
V       10.53474657       4.56903731      10.47288424      -0.00225059      -0.00260833       0.00158219
V        9.00748846       6.06516522      -0.00171041      -0.00100480      -0.00085840      -0.00284897
V       10.54814579       7.52589917       1.51073406      -0.00136341       0.00119692      -0.00124589
V        8.97916138       6.03028684       3.02616461      -0.00156330      -0.00164177      -0.00060184
V       10.50480537       7.47774678       4.48868241       0.00030767       0.00260297       0.00044379
V        8.97977396       6.01376066       6.00895360       0.00100185      -0.00041701       0.00042517
V        9.01732701       6.07080383       9.04404552       0.00098207      -0.00004367      -0.00043394
V       10.55899302       7.54489897      10.56743926       0.00088665       0.00134728      -0.00142893
V        9.09151624       9.04372003       0.04155321      -0.00199985       0.00086542      -0.00140996
V       10.65524440      10.38850840       1.58190055      -0.00142634       0.00069783      -0.00022043
V        9.01618881       9.01728241       3.06247026      -0.00341752      -0.00058694      -0.00020477
V       10.54950482      10.52748360       4.53102752      -0.00009074      -0.00018918      -0.00408106
V        9.01942577       9.04951979       6.06118871       0.00142446       0.00142475      -0.00115965
V       10.57998483      10.56261776       7.50883415       0.00219393      -0.00141892       0.00121288
V        9.06962455       9.11468515       9.12174344       0.00009409       0.00096070      -0.00218230
V       10.68825783      10.52113102      10.58808352       0.00010793       0.00510251       0.00456472
W       10.47260341       4.48362858       1.47896034       0.00000000       0.00304008       0.00095679
W       10.53033495       7.53158844       7.52922932       0.00096848      -0.00009687      -0.00039866
Zr       3.09834135       0.01083218       8.98735602       0.00010157       0.00182275       0.00054683
Zr       9.59015599       0.52139915       0.51937738      -0.00146173       0.00272156      -0.00023803
