127
Lattice="12.044405702 -0.004505072 0.000251258 -0.004506835 12.056999608 0.003663643 0.000253414 0.003660859 12.047399059" Properties=species:S:1:pos:R:3:forces:R:3 stress="0.0017467549854788145 -0.00011595475654065917 -0.00014010939685782739 -0.00011595475654065917 0.0013727387926193862 -0.00010908909650218759 -0.00014010939685782739 -0.00010908909650218759 0.0045923026865328734" free_energy=-1139.04797656 energy=-1139.01536562 pbc="T T T"
Cr       3.00549000       9.04916000      12.04088000       0.00024500       0.00002400       0.00001100
Cr       9.02220000       3.08466000       3.07197000       0.00004200       0.00079300      -0.00001100
Ti       3.01893000       6.03235000       9.01729000       0.00076500       0.00081100      -0.00073100
Ti       9.02531000      12.05569000       9.14824000       0.00041000       0.00036700       0.00039300
V        0.03869000       0.00037000       0.04160000       0.00033300       0.00000300       0.00050800
V        1.51933000       1.49010000       1.51401000      -0.00045000      -0.00050400      -0.00003700
V        0.08417000      12.05425000       3.01542000       0.00156500      -0.00000300      -0.00080500
V        1.50090000       1.49547000       4.51855000      -0.00034100      -0.00078600      -0.00080800
V       12.00453000       0.00318000       6.00228000      -0.00029900       0.00004900      -0.00000400
V        1.40272000       1.61429000       7.43277000      -0.00006100      -0.00027700      -0.00042600
V       11.97288000       0.00634000       9.07293000      -0.00025500       0.00028600      -0.00020500
V        1.44758000       1.57491000      10.58594000      -0.00012400      -0.00007300       0.00035400
V        0.01137000       3.02907000       0.01601000      -0.00038000      -0.00065300       0.00008400
V        1.52884000       4.53463000       1.48028000      -0.00030500       0.00006700      -0.00020400
V        0.01633000       2.99734000       3.03543000      -0.00057500      -0.00083600      -0.00083200
V        1.50723000       4.52854000       4.46913000      -0.00033100      -0.00018200      -0.00072100
V       12.02393000       3.00251000       6.00979000      -0.00081600      -0.00083800      -0.00035900
V        1.47005000       4.52166000       7.47479000      -0.00029500       0.00014300      -0.00027300
V       12.02503000       3.02931000       9.04297000      -0.00064200      -0.00009900      -0.00104000
V        1.47325000       4.51809000      10.56388000       0.00011200       0.00022200      -0.00029800
V        0.01141000       6.05006000      12.02091000      -0.00059000      -0.00074500       0.00030500
V        1.54612000       7.56469000       1.45252000       0.00012800      -0.00050500       0.00059300
V        0.00673000       6.04931000       3.00715000      -0.00107100      -0.00081300      -0.00075800
V        1.51348000       7.54368000       4.45263000       0.00021300      -0.00046000       0.00060100
V        0.01937000       6.02195000       5.98294000      -0.00024700      -0.00068800       0.00036300
V        1.50625000       7.55611000       7.46541000       0.00053300       0.00000500       0.00035300
V        0.01707000       6.02619000       9.02733000      -0.00029500      -0.00035800      -0.00084400
V        1.51505000       7.58507000      10.58426000      -0.00006900      -0.00001100      -0.00041400
V        0.01278000       9.02846000      12.04889000       0.00006900       0.00067100       0.00004900
V        1.55980000      10.53709000       1.48284000      -0.00047400       0.00071400       0.00023600
V        0.00727000       9.05251000       3.01809000       0.00049200       0.00045100      -0.00066800
V        1.49478000      10.56984000       4.50477000       0.00057100       0.00023600      -0.00009500
V       12.02963000       9.07113000       5.98438000      -0.00019700      -0.00051700       0.00058700
V        1.40766000      10.46941000       7.42862000       0.00041500      -0.00014300       0.00034800
V        0.00674000       9.05570000       9.03086000       0.00024100      -0.00019200      -0.00052000
V        1.49680000      10.48237000      10.60083000      -0.00017200       0.00047500       0.00028000
V        3.00825000       0.02577000      12.04681000       0.00005800       0.00015100       0.00003900
V        4.50118000       1.48634000       1.50981000       0.00068500       0.00015600       0.00047400
V        3.01310000      12.05516000       3.03033000      -0.00012000      -0.00019000       0.00012600
V        4.52762000       1.48902000       4.50964000       0.00067900      -0.00035400      -0.00005200
V        3.01703000       0.00098000       5.94892000       0.00026300      -0.00056600       0.00073800
V        4.61932000       1.60336000       7.42770000       0.00063500      -0.00009000      -0.00055300
V        4.56428000       1.57178000      10.58376000       0.00010700       0.00009400      -0.00030400
V        3.01004000       3.00466000       0.00689000       0.00018400       0.00038900      -0.00015000
V        4.50640000       4.52369000       1.48286000       0.00040600       0.00071200       0.00011100
V        3.01529000       3.00729000       2.98579000       0.00016800      -0.00035700      -0.00040000
V        4.52338000       4.52205000       4.46382000       0.00020100       0.00005200      -0.00049700
V        3.01416000       3.04051000       5.96989000       0.00032800      -0.00014100      -0.00069900
V        4.55842000       4.51883000       7.47169000       0.00072000       0.00027500      -0.00062900
V        3.01066000       3.09353000       9.01915000       0.00034100       0.00006600      -0.00096100
V        4.55303000       4.51281000      10.56790000      -0.00002500       0.00066400       0.00002100
V        3.01305000       6.01682000      12.03884000       0.00063600       0.00046500       0.00021800
V        4.47651000       7.54603000       1.45550000       0.00034000      -0.00044600       0.00067400
V        3.01461000       6.03110000       2.95517000       0.00016400      -0.00012000       0.00011900
V        4.52265000       7.53113000       4.44828000      -0.00013800      -0.00030400       0.00068700
V        3.01783000       6.03450000       5.96990000       0.00044600      -0.00010300       0.00048500
V        4.55277000       7.54752000       7.46792000       0.00007600       0.00030500       0.00021400
V        4.51299000       7.57546000      10.58746000       0.00062500       0.00030700       0.00009000
V        4.45028000      10.53195000       1.48171000       0.00079000       0.00039500       0.00062100
V        3.01369000       9.04709000       3.00002000       0.00032300      -0.00032800       0.00055300
V        4.52846000      10.56375000       4.50708000       0.00003300      -0.00019400       0.00065100
V        3.01589000       9.02873000       5.96108000       0.00033500      -0.00048000       0.00058000
V        4.60991000      10.46245000       7.42703000      -0.00008800      -0.00019500       0.00047500
V        3.01085000       8.98969000       8.99192000       0.00068100       0.00026700      -0.00059900
V        4.50463000      10.46500000      10.59269000       0.00064600       0.00015800      -0.00021000
V        5.96143000      12.04947000       0.03203000       0.00022600       0.00004300      -0.00000500
V        7.44025000       1.69437000       1.69980000      -0.00063500       0.00196200       0.00034300
V        5.94309000      12.05291000       2.99866000      -0.00124100       0.00024800      -0.00015700
V        7.63724000       1.44389000       4.49219000      -0.00057200       0.00061100      -0.00013500
V        6.06571000      12.05141000       5.99645000      -0.00037400      -0.00006000       0.00077100
V        7.52268000       1.53026000       7.52864000       0.00065800       0.00017900      -0.00041700
V        6.07849000      12.05183000       9.06586000       0.00027100       0.00013000      -0.00078600
V        7.44816000       1.59016000      10.61436000       0.00087700       0.00064200      -0.00019700
V        6.00857000       3.03746000       0.01793000       0.00043000       0.00042600       0.00030000
V        7.52400000       4.53178000       1.53157000       0.00009400      -0.00026200       0.00058300
V        6.00792000       3.00008000       3.02988000       0.00046000       0.00044900      -0.00053000
V        7.55652000       4.46732000       4.53261000       0.00009000      -0.00012200      -0.00035600
V        6.04531000       2.99813000       6.00473000       0.00028000      -0.00020800      -0.00019800
V        7.53521000       4.51564000       7.52937000      -0.00028100       0.00008700      -0.00061600
V        6.03433000       3.02555000       9.03443000       0.00063400       0.00065200      -0.00137200
V        7.52710000       4.53983000      10.51949000       0.00026700       0.00096900       0.00006800
V        6.02144000       6.01870000      12.04000000       0.00062300       0.00007700       0.00060100
V        7.51695000       7.48691000       1.50083000       0.00012100       0.00053400       0.00032000
V        6.02714000       6.01684000       2.99326000       0.00070500      -0.00013300       0.00010600
V        7.53231000       7.53200000       4.54673000      -0.00049600      -0.00020700       0.00056800
V        6.01496000       6.02267000       5.98879000      -0.00054100      -0.00063900       0.00041900
V        7.50496000       7.53125000       7.52131000      -0.00044100      -0.00060900       0.00072100
V        6.01287000       6.02999000       9.01727000      -0.00004600      -0.00004900      -0.00064200
V        7.52087000       7.50642000      10.50276000      -0.00012300       0.00014700       0.00024500
V        5.99619000       9.00206000      12.04515000       0.00016300       0.00033900       0.00016600
V        7.31589000      10.33785000       1.62254000      -0.00109600      -0.00009700       0.00037000
V        6.00696000       9.03243000       3.02135000      -0.00084700      -0.00064000       0.00010500
V        7.61979000      10.65386000       4.47196000      -0.00123000      -0.00003900       0.00013500
V        6.04713000       9.05352000       5.99484000      -0.00077400      -0.00054900       0.00097300
V        7.51767000      10.52737000       7.52136000      -0.00000700       0.00017000       0.00041300
V        6.01863000       9.03025000       9.01826000      -0.00059300       0.00022500      -0.00047100
V        7.42806000      10.45479000      10.60700000       0.00030500      -0.00033700       0.00052600
V       10.61207000       1.62809000       1.73363000       0.00084400       0.00075900       0.00026300
V       10.44214000       1.44690000       4.50003000       0.00004200       0.00027600      -0.00049400
V        9.03465000       0.00234000       6.15238000       0.00012100       0.00059300       0.00119600
V       10.54122000       1.53399000       7.53172000      -0.00084300      -0.00023500      -0.00067600
V       10.59979000       1.59385000      10.62837000      -0.00030800       0.00020000       0.00000700
V        9.01735000       3.05033000       0.01967000      -0.00020200       0.00016300       0.00004300
V       10.50740000       4.47285000       4.55388000      -0.00121800      -0.00092400      -0.00034700
V        9.02965000       2.98076000       6.06404000      -0.00046700      -0.00016000       0.00024600
V       10.52449000       4.49383000       7.53507000      -0.00070500      -0.00005200      -0.00056300
V        9.02750000       3.00108000       9.07376000       0.00003400       0.00046100      -0.00074900
V       10.52693000       4.54199000      10.50755000      -0.00040100       0.00021100      -0.00003400
V        9.01587000       6.04680000      12.02265000       0.00017500      -0.00006500       0.00061900
V       10.54132000       7.52797000       1.49754000      -0.00059500       0.00014500      -0.00009900
V        9.01779000       6.05225000       3.05833000      -0.00085500      -0.00124700      -0.00019700
V       10.52610000       7.54237000       4.51823000      -0.00074900      -0.00036100       0.00056600
V        9.01736000       6.00810000       6.01216000      -0.00092600      -0.00104100       0.00068400
V        9.01480000       6.01210000       9.01728000      -0.00054000      -0.00056500      -0.00041600
V       10.53521000       7.51652000      10.53012000      -0.00042900      -0.00008800       0.00018600
V        9.02752000       8.96662000       0.01484000       0.00009700       0.00036900       0.00043600
V       10.72592000      10.37619000       1.63239000       0.00151700       0.00041800       0.00033600
V        9.03190000       8.95111000       3.00752000      -0.00032900       0.00030600      -0.00036200
V       10.44751000      10.66649000       4.47295000       0.00049800       0.00037600      -0.00033400
V        9.01671000       9.08908000       6.00214000      -0.00047600      -0.00043400       0.00094600
V       10.54302000      10.56164000       7.52130000      -0.00014800       0.00006800       0.00025500
V        9.01744000       9.06079000       9.06663000      -0.00004500      -0.00020800       0.00013200
V       10.62380000      10.46652000      10.61108000       0.00006600      -0.00002500       0.00093900
W       10.52518000       4.53976000       1.52930000       0.00038600       0.00069300      -0.00082900
W       10.52715000       7.53571000       7.51961000      -0.00048600      -0.00065400       0.00058600
Zr       3.00774000       0.01994000       8.94107000       0.00009500      -0.00072700      -0.00108500
Zr       9.00456000      12.00684000       0.35339000       0.00129400       0.00058900       0.00006100
