128
Lattice="12.04 0.0 0.0 0.0 12.04 0.0 0.0 0.0 12.04" Properties=species:S:1:pos:R:3:forces:R:3 stress="-0.01272360970404194 2.864228537867827e-05 0.00024614639539745803 2.864228537867827e-05 -0.01282937207618003 -0.00031736201452378605 0.00024614639539745803 -0.00031736201452378605 -0.012717717719427106" free_energy=-1150.64468873 energy=-1150.60896631 pbc="T T T"
Cr       0.00000000       9.03000000       0.00000000      -0.13322400       0.28262600      -0.15350200
Cr       4.51500000       4.51500000       1.50500000       0.03887200      -0.06565200      -0.01990700
Cr       4.51500000       7.52500000       1.50500000      -0.00684800       0.06545000      -0.24613900
Cr       9.03000000       3.01000000       6.02000000       0.26171800       0.80638600      -0.78069300
Ti       0.00000000       3.01000000       3.01000000       0.02110900       0.05347300      -0.03218400
Ti       1.50500000       7.52500000       4.51500000      -0.49458800      -0.25679100      -0.24197700
Ti       3.01000000       0.00000000       6.02000000      -0.00944900      -0.04121600      -0.00144600
Ti       3.01000000       3.01000000       6.02000000      -0.02152000       0.10093100      -0.01798900
Ti       3.01000000       9.03000000       6.02000000       0.04403900       0.38507500       0.45975300
Ti      10.53500000       1.50500000       7.52500000       0.19780600       0.47246500      -0.49270200
Ti       9.03000000       9.03000000       3.01000000      -0.02612800       0.03519900       0.00304700
V        0.00000000       0.00000000       0.00000000      -0.00285100       0.04258400      -0.02379700
V        1.50500000       1.50500000       1.50500000       0.29768500      -0.08718100      -0.24071000
V        0.00000000       0.00000000       3.01000000      -0.14128600       0.14193800       0.11504400
V        1.50500000       1.50500000       4.51500000      -0.29129000      -0.23591700      -0.28922700
V        0.00000000       0.00000000       6.02000000       0.40404400      -0.11638100      -0.38012100
V        1.50500000       1.50500000       7.52500000      -0.56220700       0.00549800       0.55737300
V        0.00000000       0.00000000       9.03000000       0.53353600      -0.26578300       0.25379600
V        1.50500000       1.50500000      10.53500000       0.26490900      -0.03435300       0.01151800
V        0.00000000       3.01000000       0.00000000       0.16794700      -0.24392000       0.15773100
V        1.50500000       4.51500000       1.50500000       0.74835300      -0.27327100       0.26921300
V        1.50500000       4.51500000       4.51500000      -0.01445800       0.51120700       0.00100400
V        0.00000000       3.01000000       6.02000000       0.34668500       0.24881400      -0.26176900
V        1.50500000       4.51500000       7.52500000      -0.28481000       0.25425000       0.26102600
V        0.00000000       3.01000000       9.03000000       0.42151800       0.41515800       0.15780900
V        1.50500000       4.51500000      10.53500000       0.57338000      -0.51208700      -0.52713200
V        1.50500000       7.52500000       1.50500000       0.33093700       0.51020800       0.32940000
V        0.00000000       6.02000000       3.01000000      -0.24792200      -0.28038400       0.08406800
V        0.00000000       6.02000000       6.02000000      -0.29612700      -0.27944000       0.27762900
V        1.50500000       7.52500000       7.52500000      -0.29150100      -0.25318300       0.29104000
V        0.00000000       6.02000000       9.03000000      -0.01190400       0.00876800      -0.33537400
V        1.50500000       7.52500000      10.53500000       0.38363000       0.72505400      -0.33656400
V        0.00000000       9.03000000       3.01000000      -0.46450500       0.12818700      -0.07890500
V        1.50500000      10.53500000       4.51500000      -0.55216000       0.01342100      -0.36407000
V        0.00000000       9.03000000       6.02000000      -0.13220900       0.13121000       0.13373500
V        1.50500000      10.53500000       7.52500000      -0.30865800      -0.02873900       0.56036100
V        0.00000000       9.03000000       9.03000000       0.13752000      -0.14844900       0.12677100
V        1.50500000      10.53500000      10.53500000      -0.13389300      -0.16303800      -0.05139600
V        3.01000000       0.00000000       0.00000000       0.12514800       0.14176900      -0.12998200
V        4.51500000       1.50500000       1.50500000       0.02743700      -0.07461200      -0.00648800
V        3.01000000       0.00000000       3.01000000       0.15380800       0.16779000       0.15173100
V        4.51500000       1.50500000       4.51500000       0.61143900       0.01489500      -0.54665300
V        4.51500000       1.50500000       7.52500000       0.21015000       0.02912300       0.52868700
V        3.01000000       0.00000000       9.03000000      -0.06981200      -0.01201600       0.01645100
V        4.51500000       1.50500000      10.53500000       0.04199400       0.01066500       0.00890500
V        3.01000000       3.01000000       0.00000000       0.15968800       0.23714500       0.18219800
V        3.01000000       3.01000000       3.01000000       0.20167900       0.18364500      -0.17733200
V        4.51500000       4.51500000       4.51500000       0.29038200       0.00746600      -0.21105300
V        4.51500000       4.51500000       7.52500000       0.30929800       0.22673100       0.26808900
V        3.01000000       3.01000000       9.03000000      -0.01298500       0.00604700       0.00951300
V        4.51500000       4.51500000      10.53500000      -0.00563300       0.01668200      -0.05452800
V        3.01000000       6.02000000       0.00000000       0.75272500      -0.01746400       0.33594200
V        3.01000000       6.02000000       3.01000000       0.47638000      -0.44653500      -0.77311800
V        3.01000000       6.02000000       6.02000000       0.17872100      -0.40322700       0.35570400
V        4.51500000       7.52500000       7.52500000       0.27693100      -0.24204000       0.52729500
V        3.01000000       6.02000000       9.03000000       0.00157200      -0.02630700       0.05722400
V        4.51500000       7.52500000      10.53500000       0.01190300       0.01472800      -0.06917800
V        3.01000000       9.03000000       0.00000000       0.37331100      -0.36596000       0.04813000
V        4.51500000      10.53500000       1.50500000       0.21473600       0.08115900      -0.03300300
V        3.01000000       9.03000000       3.01000000       0.50753600       0.10917300      -0.42970900
V        4.51500000      10.53500000       4.51500000       0.53281400       0.22549800      -0.56888000
V        4.51500000      10.53500000       7.52500000       0.56391500       0.01227000       0.58086100
V        3.01000000       9.03000000       9.03000000       0.03754200       0.02485200      -0.02199500
V        4.51500000      10.53500000      10.53500000      -0.02917500      -0.04649900       0.03648000
V        6.02000000       0.00000000       0.00000000      -0.02065200       0.01048600       0.03150200
V        7.52500000       1.50500000       1.50500000      -0.04591400       0.01091500       0.02909100
V        6.02000000       0.00000000       3.01000000      -0.02417100      -0.02569300      -0.04548400
V        7.52500000       1.50500000       4.51500000       0.18285800       0.22280700      -0.21649800
V        6.02000000       0.00000000       6.02000000      -0.54793400      -0.56214200      -0.57120800
V        6.02000000       0.00000000       9.03000000      -0.50319600      -0.54533500       0.54966500
V        7.52500000       1.50500000      10.53500000      -0.26224200       0.01035600       0.37316600
V        6.02000000       3.01000000       0.00000000      -0.17806500       0.21355000       0.20844100
V        7.52500000       4.51500000       1.50500000       0.02715500      -0.02498600       0.02961100
V        6.02000000       3.01000000       3.01000000      -0.19991700       0.23247100      -0.21923300
V        7.52500000       4.51500000       4.51500000       0.17190200      -0.23357400       0.22396500
V        6.02000000       3.01000000       6.02000000      -0.63482800       0.56640500      -0.56501300
V        7.52500000       4.51500000       7.52500000       0.20147800       0.19532300      -0.21671400
V        6.02000000       3.01000000       9.03000000      -0.54360700       0.57853600       0.57450500
V        7.52500000       4.51500000      10.53500000      -0.05097300      -0.04558400      -0.04429700
V        6.02000000       6.02000000       0.00000000      -0.34324400      -0.01823900       0.36129800
V        7.52500000       7.52500000       1.50500000      -0.22232000      -0.24957300      -0.27079500
V        6.02000000       6.02000000       3.01000000      -0.20798000      -0.12566100      -0.48798300
V        7.52500000       7.52500000       4.51500000      -0.02624200      -0.29992200       0.26964300
V        6.02000000       6.02000000       6.02000000       0.14435000      -0.13632200       0.12429300
V        7.52500000       7.52500000       7.52500000       0.00652000      -0.04381500       0.00443500
V        6.02000000       6.02000000       9.03000000      -0.01942600       0.03935200       0.04116500
V        7.52500000       7.52500000      10.53500000      -0.05380400       0.01434200      -0.00246900
V        6.02000000       9.03000000       0.00000000      -0.15417400      -0.20807500       0.18050300
V        7.52500000      10.53500000       1.50500000      -0.27216100       0.25343900      -0.26372400
V        6.02000000       9.03000000       3.01000000      -0.00763100      -0.04381900      -0.33231200
V        7.52500000      10.53500000       4.51500000      -0.25293300       0.31655500       0.26421200
V        6.02000000       9.03000000       6.02000000       0.10881100       0.10090300       0.12482000
V        7.52500000      10.53500000       7.52500000      -0.20697500      -0.36398200       0.00725500
V        6.02000000       9.03000000       9.03000000      -0.02087400      -0.04519500       0.02018700
V        7.52500000      10.53500000      10.53500000      -0.03140600       0.01929300      -0.01071000
V        9.03000000       0.00000000       0.00000000      -0.11767500      -0.18142700       0.16775000
V       10.53500000       1.50500000       1.50500000      -0.28246500      -0.29190800      -0.00807600
V        9.03000000       0.00000000       3.01000000       0.03850800      -0.04883500      -0.03340100
V       10.53500000       1.50500000       4.51500000      -0.50186100      -0.07087700       0.47289000
V        9.03000000       0.00000000       6.02000000       0.16938100      -0.77165400      -0.95369400
V        9.03000000       0.00000000       9.03000000       0.05588000      -0.82535900       0.84774400
V        9.03000000       3.01000000       0.00000000      -0.11946000       0.21601200       0.17109200
V       10.53500000       4.51500000       1.50500000      -0.79582500      -0.28014800       0.29447400
V        9.03000000       3.01000000       3.01000000       0.00418000      -0.00294000      -0.10588800
V       10.53500000       4.51500000       4.51500000      -0.45966400       0.08608200       0.50907900
V       10.53500000       4.51500000       7.52500000      -0.22930400      -0.18113200      -0.20848200
V        9.03000000       3.01000000       9.03000000       0.14726300       0.95384200       0.75695700
V       10.53500000       4.51500000      10.53500000      -0.53546100      -0.29730900      -0.55859200
V        9.03000000       6.02000000       0.00000000      -0.38203000       0.00879500      -0.00050400
V       10.53500000       7.52500000       1.50500000      -0.09211300       0.45662500       0.07700900
V        9.03000000       6.02000000       3.01000000      -0.03106500       0.00546400      -0.02865100
V       10.53500000       7.52500000       4.51500000       0.25335900      -0.27178800       0.29446500
V        9.03000000       6.02000000       6.02000000      -0.00138300       0.10445400       0.00272500
V       10.53500000       7.52500000       7.52500000      -0.00103000      -0.23424900      -0.02554200
V        9.03000000       6.02000000       9.03000000       0.03744100       0.02082900       0.03182100
V       10.53500000       7.52500000      10.53500000      -0.34495400       0.70123200      -0.36829400
V        9.03000000       9.03000000       0.00000000      -0.02332000      -0.03634900       0.03452400
V       10.53500000      10.53500000       1.50500000       0.19678900       0.11885400      -0.40059300
V       10.53500000      10.53500000       4.51500000       0.27330400       0.25358800       0.01252700
V        9.03000000       9.03000000       6.02000000      -0.15231800      -0.18360900      -0.18142900
V        9.03000000       9.03000000       9.03000000      -0.15896900      -0.15734900       0.15457900
V       10.53500000      10.53500000      10.53500000       0.18739400      -0.40684700       0.39625100
W        1.50500000      10.53500000       1.50500000      -0.16323700      -0.19666800      -0.22526400
W        4.51500000       7.52500000       4.51500000       0.36658400      -0.36559600      -0.34320800
W       10.53500000       1.50500000      10.53500000      -0.06544600      -0.01700200      -0.04375900
W       10.53500000      10.53500000       7.52500000      -0.02877500      -0.00891800       0.00284500
Zr       0.00000000       6.02000000       0.00000000      -0.03281100      -0.06601300       0.02749100
Zr       7.52500000       1.50500000       7.52500000       0.08902300       0.23029100      -0.20017000
