128
Lattice="12.091614014443511 -0.00041071459908877085 0.0006695360618873701 -0.0004106839850753486 12.089532370641614 0.00038327849287979614 0.0006695322856332959 0.0003832328764644084 12.094344108101494" Properties=species:S:1:pos:R:3:forces:R:3 energy=-1156.9373187177114 free_energy=-1156.9373187177114 stress="-0.0003529019883192245 3.600348109810773e-05 -7.3958410182113e-05 3.600348109810773e-05 -0.00011425611735944397 -7.428248661511689e-05 -7.3958410182113e-05 -7.428248661511689e-05 -0.000578784745239588" pbc="T T T"
Cr      -0.00463183       9.08362453      -0.02091671      -0.00079968      -0.00538427      -0.00075318
Cr       4.58463442       4.52300791       1.49787667      -0.00130122       0.00323401       0.00205166
Cr       4.53015886       7.55437800       1.46458711       0.00007625       0.00130538       0.00179657
Cr       9.11399745       3.15220101       5.93614732       0.00392802       0.00382233      -0.00463859
Ti      -0.00460295       3.04739492       3.01542641       0.00060851       0.00542129      -0.00190038
Ti       1.47915249       7.52426175       4.49689691      -0.00350203       0.00177000       0.00067794
Ti       3.04097716       0.01435247       6.07591501       0.00208116      -0.00080093       0.00164080
Ti       2.99387612       3.03567083       6.03405508       0.00135938      -0.00259318      -0.00361228
Ti       3.04049320       9.12886198       6.12258209      -0.00086001       0.00488282      -0.00093493
Ti      10.60741917       1.55314580       7.50408362      -0.00018317       0.00229911      -0.00697680
Ti       9.03838956       9.08109394       3.02475339       0.00207474       0.00169863       0.00118185
V        0.01516146       0.00937939       0.00410812      -0.00307647      -0.00131757      -0.00188080
V        1.57085018       1.49300649       1.48023201      -0.00252604       0.00316197       0.00218121
V       -0.02006491       0.03381092       3.02862093       0.00226850       0.00025378       0.00321622
V        1.47115020       1.42570605       4.46373213       0.00239096      -0.00256017       0.00293160
V        0.05181879      -0.01750930       6.02465542       0.00133859      -0.00017229      -0.00728721
V        1.41225849       1.51653725       7.61581082      -0.00312018      -0.00174390       0.00015808
V        0.04850851      -0.02721020       9.08598809      -0.00159338      -0.00225348       0.00582658
V        1.55174172       1.48071881      10.61183225      -0.00239655       0.00037167      -0.00407279
V        0.01284858       2.93563445       0.00849698      -0.00000877      -0.00032305       0.00163254
V        1.66784512       4.46761489       1.54204296       0.00553875      -0.00324939      -0.00010363
V        1.50972023       4.67813873       4.52768098      -0.00034876      -0.00121471      -0.00129744
V        0.07520080       3.04318883       5.99311366      -0.00172299       0.00388297      -0.00021658
V        1.47264419       4.59536634       7.56747846      -0.00228949      -0.00112815      -0.00061886
V        0.05242126       3.04527738       9.07581043      -0.00113276       0.00272603      -0.00109212
V        1.65779659       4.43112499      10.48929408       0.00101691      -0.00200166      -0.00126641
V        1.52819547       7.59997621       1.51838298       0.00015215      -0.00235701      -0.00429818
V       -0.05861793       5.99061101       3.00321396      -0.00170972       0.00074614      -0.00188858
V       -0.03641191       6.03769521       6.09814985      -0.00177573       0.00189087       0.00020700
V        1.48789334       7.52324914       7.60430668      -0.00045090       0.00179143       0.00147367
V        0.00792475       6.06111824       9.02823292       0.00084189       0.00078223      -0.00293616
V        1.57152872       7.63581275      10.57206550       0.00166535       0.00257931      -0.00013980
V       -0.08633409       9.08176869       3.01254834       0.00083813      -0.00178988      -0.00001891
V        1.42562523      10.59153717       4.48459895      -0.00087968       0.00040173       0.00121549
V       -0.03615572       9.08391439       6.09066585      -0.00013284      -0.00156813      -0.00164192
V        1.47061386      10.55941340       7.66885876       0.00044044       0.00135916      -0.00098771
V        0.00856489       9.04674146       9.07302264       0.00021891      -0.00107274       0.00477903
V        1.50783647      10.54984331      10.60226607      -0.00229243      -0.00133092       0.00046696
V        3.04169791      -0.00343857      -0.02243997      -0.00140505      -0.00014167       0.00014887
V        4.51812043       1.50730617       1.48579410       0.00132320       0.00174711      -0.00267950
V        3.02618587       0.02631975       3.01139584       0.00113716      -0.00090490       0.00101635
V        4.60273798       1.53353039       4.40928976      -0.00093946      -0.00201134      -0.00068264
V        4.56293918       1.56124336       7.69234557       0.00129525       0.00140237       0.00331824
V        3.01147819       0.00604944       9.10405632       0.00120428      -0.00015789       0.00157467
V        4.52786534       1.50819711      10.62660190       0.00290530       0.00144741      -0.00222495
V        3.07843200       3.03691694       0.02197550       0.00065002      -0.00142353       0.00247658
V        3.06779808       3.04291052       2.97588852       0.00046800       0.00395920      -0.00018366
V        4.58979485       4.53537593       4.50704322       0.00181611      -0.00287850       0.00183480
V        4.57393342       4.57652850       7.56928040      -0.00120148      -0.00434884      -0.00317350
V        3.01617424       3.01504444       9.06438427       0.00179445       0.00043501      -0.00099253
V        4.54952187       4.55734599      10.58823575       0.00097544       0.00145078      -0.00076660
V        3.12553283       6.04418697       0.02858803      -0.00076153       0.00191491       0.00367797
V        3.10889550       6.02037985       2.93486640       0.00153796       0.00055477      -0.00450031
V        3.05532658       6.00937308       6.07239570      -0.00164778       0.00239107       0.00023760
V        4.55356291       7.50399618       7.63045096      -0.00080217       0.00048310      -0.00210300
V        3.02627060       6.04990057       9.07150784       0.00141757       0.00150067      -0.00194840
V        4.54365276       7.56130152      10.56030672      -0.00085845       0.00032807       0.00016653
V        3.06635620       9.00772126      -0.00023715      -0.00240618      -0.00335681       0.00068432
V        4.55084164      10.59975685       1.48047319      -0.00135596      -0.00077029       0.00102420
V        3.09291995       9.06300328       2.95752359       0.00097457       0.00169569       0.00076809
V        4.62525539      10.61510958       4.42663520       0.00143288       0.00244775       0.00043170
V        4.64717539      10.60163156       7.69913344       0.00629732       0.00213127       0.00302737
V        3.02751486       9.06435849       9.08333788      -0.00201208      -0.00074641       0.00060806
V        4.50880298      10.55819825      10.62263116       0.00117084      -0.00084670      -0.00194221
V        6.03560761      -0.01631532       0.02610645      -0.00156111      -0.00102498      -0.00133113
V        7.52859804       1.50646519       1.51585573      -0.00042086      -0.00029328      -0.00167720
V        6.05993046       0.01942949       3.00103908      -0.00392415      -0.00150034      -0.00122561
V        7.57132264       1.56273689       4.47327944      -0.00006403      -0.00049605       0.00132452
V        5.97896256      -0.04287632       5.97509421      -0.00103774      -0.00350108      -0.00321746
V        6.00188478      -0.05715623       9.17337779       0.00264860       0.00182432       0.00384954
V        7.51406701       1.49476565      10.67920002      -0.00050385       0.00045552       0.00016718
V        6.02091325       3.05358424       0.04298534      -0.00072342       0.00113561      -0.00059444
V        7.54596541       4.53731083       1.52035217       0.00001965       0.00099722      -0.00184036
V        6.02485277       3.06442540       2.96335283      -0.00199733      -0.00172369       0.00655648
V        7.57900185       4.51375398       4.55733881      -0.00042732      -0.00356179       0.00328963
V        5.95400316       3.09501992       5.96151253      -0.00273863       0.00165177       0.00005239
V        7.57856698       4.59684567       7.53302500      -0.00101288       0.00041636      -0.00035196
V        5.97440985       3.12411387       9.18522582       0.00136378       0.00040329       0.00101438
V        7.50423708       4.56943312      10.58857453       0.00113687       0.00047341      -0.00005043
V        6.00957038       6.05932909       0.04309438      -0.00120618       0.00435740       0.00396479
V        7.53328063       7.52214792       1.47846693      -0.00127543       0.00198680       0.00275255
V        6.04795642       6.03706649       2.97976993      -0.00030534       0.00082329      -0.00124667
V        7.56611451       7.50233078       4.57108288       0.00107637      -0.00004611      -0.00070199
V        6.08221255       6.04658845       6.05309566      -0.00277274      -0.00462184       0.00088010
V        7.56129045       7.54116254       7.56574755      -0.00122642      -0.00052323      -0.00041245
V        6.04699602       6.06475856       9.07053346      -0.00249148      -0.00126334      -0.00103791
V        7.53232559       7.55719791      10.60721206      -0.00000208      -0.00032521      -0.00109311
V        6.03230302       9.03171131       0.02542111      -0.00307399      -0.00261449       0.00119282
V        7.50117298      10.59737808       1.47809598       0.00016746      -0.00120879      -0.00020131
V        6.07033158       9.04134838       2.98684741      -0.00063921       0.00036091      -0.00086393
V        7.52193059      10.62045792       4.56066152      -0.00254186       0.00280718       0.00133275
V        6.09139368       9.06116524       6.05607812      -0.00028812       0.00419407       0.00162352
V        7.53572833      10.50865160       7.57830950      -0.00336067      -0.00180249      -0.00234947
V        6.05012023       9.04469591       9.10967943      -0.00115701       0.00151156      -0.00149606
V        7.55015163      10.54406030      10.63350162       0.00304554       0.00017993      -0.00100481
V        9.03967172      -0.02580290       0.05051242       0.00327324      -0.00277580      -0.00167874
V       10.54753991       1.46079700       1.51635311      -0.00041906       0.00034214      -0.00272474
V        9.07305173       0.00700104       2.98918148      -0.00002944      -0.00149074       0.00358420
V       10.53212394       1.52771973       4.57867369      -0.00068960      -0.00175505       0.00401069
V        9.08683718      -0.10363883       5.90412238      -0.00135976      -0.00117740      -0.00257032
V        9.09799743      -0.12120573       9.19981649      -0.00241118      -0.00157281       0.00466734
V        9.01305384       3.01378828       0.02647300      -0.00132612      -0.00176764      -0.00401664
V       10.37484811       4.47172523       1.55974699       0.00321951       0.00122518      -0.00366985
V        9.04820522       3.00005521       2.99473748       0.00000941       0.00056480       0.00566927
V       10.49748275       4.52117022       4.60966311      -0.00187292       0.00085374       0.00446332
V       10.55751536       4.53616191       7.51149040       0.00406133       0.00010020      -0.00061845
V        9.10897776       3.16203206       9.17040657       0.00119034       0.00475762       0.00320406
V       10.48091468       4.48796500      10.46791053      -0.00400101      -0.00562392      -0.00440695
V        8.98855168       6.05906700      -0.00316963       0.00049944       0.00390034      -0.00010156
V       10.59576607       7.62737882       1.49323112      -0.00038243      -0.00052673       0.00011426
V        9.03246887       6.06153150       3.03124254       0.00337368       0.00024978       0.00209811
V       10.59498016       7.52397503       4.57684570       0.00172096       0.00029202       0.00008976
V        9.05724692       6.08988058       6.05666818       0.00193400      -0.00354542       0.00016432
V       10.58819421       7.53216849       7.55456834       0.00162428       0.00047974       0.00176178
V        9.05244675       6.08366405       9.05585171      -0.00194589       0.00111027      -0.00144273
V       10.52894011       7.64500184      10.53115103       0.00332588      -0.00016583      -0.00037428
V        9.02870320       9.04352770       0.02294111       0.00577103       0.00171034      -0.00078373
V       10.59939191      10.58372462       1.46099556       0.00335755      -0.00107249       0.00088339
V       10.61343125      10.62160069       4.52710565      -0.00154604       0.00063344       0.00130807
V        9.05224781       9.01473714       6.03954273      -0.00107634       0.00004657      -0.00214148
V        9.04992714       9.02322659       9.08943237       0.00019009       0.00101877       0.00012070
V       10.63113340      10.51270423      10.65403166       0.00076345      -0.00164960       0.00203786
W        1.51087811      10.55941588       1.48869210      -0.00186617      -0.00041146      -0.00249160
W        4.56139734       7.54693494       4.52087710       0.00372762      -0.00059345      -0.00349953
W       10.57824884       1.48590433      10.58572356       0.00205941      -0.00136400       0.00371033
W       10.56334591      10.57010261       7.57090441      -0.00005598       0.00073519       0.00043734
Zr       0.00314206       5.94823504      -0.05068049      -0.00192251      -0.00369860       0.00565821
Zr       7.59180200       1.56743105       7.53518707      -0.00164921      -0.00572288      -0.00343870
