124
Lattice="12.66565832686254 -0.002298327060188814 0.00834880377590093 -4.224032352002198 11.93626782835652 -0.005927311628687681 -4.2140114367360075 -5.969726805641839 10.344027844722934" Properties=species:S:1:pos:R:3:energies:R:1:forces:R:3 energy=-1103.8670910797089 free_energy=-1103.8670910797089 stress="-0.002549759145463897 -9.207542176536587e-05 0.0006733196055456487 -9.207542176536587e-05 -0.003177472084895067 -0.0002657674740678375 0.0006733196055456487 -0.0002657674740678375 -0.0020835920190509843" pbc="T T T"
V        0.01332766       0.01830457       0.01588808      -9.20167800       0.00028155      -0.00326763       0.00220281
V       -0.83658717      -1.17947537       2.08216654      -9.00530332       0.00108276      -0.00249220      -0.00100027
V       10.99278954      -2.37751960       4.14607789      -8.93225116       0.00004025      -0.00003640      -0.00016647
V       -6.73507076       8.36720238       6.19972707      -9.11088343      -0.00010337       0.00128075      -0.00093045
V       -3.35502021      -4.77378502       8.27723564      -9.28041797      -0.00020679       0.00226333      -0.00050962
V       -1.66873907       1.20329953       2.07954479      -9.21991155      -0.00022223      -0.00116114      -0.00072473
V       -2.51442850       0.00759931       4.13505779      -8.95956651      -0.00135413       0.00053579       0.00171307
V       -3.35351894      -1.19054263       6.20851157      -9.04117359       0.00069824       0.00154715      -0.00153201
V       -2.52541261       3.59577060       2.07477520      -9.27145832       0.00009461      -0.00169457       0.00145217
V       -3.36349658       2.40362097       4.12758432      -8.97095599       0.00100307      -0.00261705       0.00030159
V       -4.18285492       1.18082974       6.16575868      -8.78182347       0.00102103       0.00104245      -0.00194183
V       -5.08030025       0.08238375       8.27384604      -9.10388344       0.00002898      -0.00057999       0.00031223
V       -2.50747849       7.20131186      -0.04143592      -8.86712072      -0.00227534      -0.00306996       0.00278735
V       -3.36689690       5.99063254       2.06825212      -9.11574788      -0.00146423      -0.00220749       0.00483538
V       -4.21334915       4.78433523       4.14622842      -8.93601080       0.00080028       0.00140223      -0.00079461
V       -5.07378767       3.56922154       6.25165657      -8.75322390       0.00129081       0.00242481      -0.00249141
V       -3.40159223       9.58139469       0.03982383      -8.76487111      -0.00007036       0.00120375       0.00029362
V        8.44696269       8.36731591       2.08576958      -8.91786368      -0.00148020       0.00309867       0.00043360
V        7.61131008       7.17283502       4.14220515      -8.93252628       0.00045835       0.00139936      -0.00035745
V       -5.89467890       5.96865642       6.20932628      -8.93985462       0.00110392      -0.00135676       0.00099569
V       -6.71986298       4.73128028       8.27212279      -8.79037602       0.00009974       0.00330829      -0.00043691
V        2.54552929       0.00130408       0.00379479      -9.00225665       0.00088005      -0.00159629      -0.00163989
V        1.70949114      -1.18927606       2.08941712      -8.91488483      -0.00277385      -0.00021632      -0.00147415
V       -3.36781390       9.55945801       4.14008172      -8.92423423      -0.00083241       0.00060309       0.00034110
V        0.01195735      -3.56663179       6.20783006      -8.94365182       0.00095889       0.00016272       0.00031478
V       -0.83318511      -4.75067433       8.27947414      -8.96832799       0.00373791      -0.00240903      -0.00014950
V        1.70171527       2.39397126       0.01346291      -9.21842084      -0.00089891       0.00174528      -0.00023882
V        0.88301576       1.18774982       2.10866750      -9.05903007      -0.00148877       0.00065125      -0.00070166
V        0.01490900       0.00469716       4.15650689      -8.92966706      -0.00027440      -0.00024223      -0.00045245
V       -0.83169655      -1.18413308       6.21284645      -8.97858058       0.00075556      -0.00076142      -0.00106641
V       -1.67692557      -2.37488141       8.27686188      -9.08294607       0.00132310      -0.00186632      -0.00011191
V        0.85879257       4.78300340       0.00541602      -9.25054175      -0.00183028       0.00201426       0.00038383
V        0.01758107       3.58349433       2.08162352      -9.21503079      -0.00068741      -0.00076764      -0.00103593
V       -0.82919814       2.39848021       4.14395205      -8.98900702       0.00086084      -0.00059985      -0.00082075
V       -1.66420853       1.20723740       6.20528962      -8.91804218      -0.00150979      -0.00131340      -0.00184193
V       -2.51943924       0.02182029       8.27575003      -9.11621309      -0.00061611      -0.00036796      -0.00005909
V        0.03582466       7.15715319       0.04090087      -8.91199065       0.00022694      -0.00332043       0.00205324
V       -0.83924242       5.97835120       2.07399996      -9.06867348       0.00294668       0.00019554      -0.00144543
V       -1.68061031       4.78762280       4.13343241      -8.98200240       0.00167420       0.00051985      -0.00126048
V       -2.52985217       3.58979004       6.21031395      -8.93866995      -0.00107487       0.00044454       0.00114290
V       -3.41890862       2.41255393       8.27205708      -8.75540539       0.00318693       0.00170607      -0.00092385
V       -5.07100816       3.56998430      10.29785066      -8.75290063       0.00048680       0.00247180       0.00085597
V       -1.68035254       8.36466528       2.05696991      -8.99178833      -0.00026302       0.00048100      -0.00073889
V       -2.52619126       7.17254853       4.13600825      -8.94826621      -0.00046478      -0.00055907       0.00319990
V       -3.36587362       5.98440205       6.19571697      -8.91558237       0.00085280       0.00029190       0.00393072
V       -4.17300412       4.83745582       8.27512885      -8.74502362      -0.00012280       0.00055054      -0.00039609
V        0.86028762      -5.95323596      10.36001893      -8.91635389       0.00081962      -0.00015066      -0.00340364
V        0.00767739      10.75067307       2.06453870      -8.93423876       0.00069913       0.00088000       0.00106137
V       -0.83166565       9.55600350       4.13745475      -8.95044465       0.00038986       0.00074269       0.00140596
V       -1.68098613       8.36713889       6.20263105      -8.95631771      -0.00017199      -0.00043814       0.00015534
V        1.70323195      -4.75280430       8.28183850      -8.99375869      -0.00122150      -0.00320439       0.00007396
V        4.23108001       2.40106743       0.00932556      -8.94489894       0.00058207       0.00016975      -0.00009749
V        3.40309155       1.20102798       2.08263997      -8.92848338       0.00007884       0.00075343       0.00071324
V        2.54658443       0.00976297       4.14343014      -8.93555443      -0.00151965      -0.00063719      -0.00226868
V        1.69633456      -1.18477106       6.21554323      -8.94729393      -0.00059174      -0.00038684       0.00003611
V        0.85790717      -2.37355794       8.28096335      -8.92464558       0.00083060      -0.00003511      -0.00009377
V        3.38441266       4.78534742       0.00206515      -8.97919040       0.00031268      -0.00033681       0.00092787
V        2.54638175       3.58954240       2.07581305      -8.99374544      -0.00011427       0.00039085       0.00000129
V        1.70565948       2.39823842       4.15457408      -8.92456183      -0.00087197       0.00032333      -0.00110407
V        0.85487201       1.20544092       6.21372465      -8.92831430      -0.00215567      -0.00005533      -0.00071343
V        0.01359753       0.01466948       8.27886299      -8.94885139       0.00226358      -0.00011987       0.00011587
V        2.55332976       7.17413947       0.00652305      -8.91692069      -0.00225480      -0.00034306       0.00156129
V        1.70095478       5.97521894       2.07611287      -8.99185004      -0.00198464       0.00164780      -0.00200138
V        0.85458167       4.78424698       4.14295071      -8.94929195       0.00000531      -0.00035803      -0.00054501
V        0.01165071       3.58641304       6.20780745      -8.93133027       0.00141443      -0.00009570      -0.00061248
V       -0.83575538       2.39700554       8.27650678      -8.93854172       0.00177176       0.00061096       0.00007138
V       -2.52794095       3.58928754      10.34226961      -8.94240370      -0.00159092       0.00076176      -0.00153373
V        0.85623871       8.37065515       2.07610472      -8.93456469       0.00043128      -0.00151855      -0.00034515
V        0.00948679       7.17384460       4.14205804      -8.92065996       0.00088851      -0.00071296       0.00040566
V       -0.83196294       5.97894206       6.20046362      -8.97633957       0.00006476       0.00021920       0.00019709
V       -1.67704631       4.77591095       8.27333036      -8.91709404      -0.00281836       0.00256410       0.00025227
V        3.37796945      11.94070304       0.00898730      -9.10743847       0.00013716       0.00028279       0.00047196
V        6.76303234      -1.18138477       2.07703095      -8.94817176       0.00067498       0.00003933       0.00162090
V        1.69632141       9.56025064       4.13409959      -8.95315595      -0.00015387      -0.00097034      -0.00136536
V        4.23605628      -4.76040231       8.28077882      -9.23849541      -0.00097606      -0.00182234      -0.00066040
V        6.76233841       2.39726978       0.01485306      -9.06122231      -0.00094632      -0.00052092       0.00018553
V        5.92305988       1.20507760       2.07450885      -8.98310905      -0.00136373      -0.00144974      -0.00183537
V        5.08695345       0.01553009       4.15091829      -8.95555619      -0.00137998      -0.00059964      -0.00296735
V        4.24861007      -1.19329837       6.22857156      -9.02576030       0.00180966       0.00389384       0.00605661
V        5.91082368       4.78562438       0.00516205      -8.97724089      -0.00120083      -0.00025767      -0.00009910
V        5.07106465       3.59232459       2.07398704      -8.92679236      -0.00121686       0.00026558      -0.00012591
V        4.23076177       2.39561234       4.13639415      -8.91357821      -0.00091370       0.00255455       0.00090916
V        3.39927265       1.21079823       6.22273891      -8.95444043       0.00303655       0.00158288       0.00195028
V        2.53935984       0.01339404       8.28049520      -8.94601652       0.00519030       0.00040900      -0.00060307
V        5.06766256       7.17668615       0.00334185      -8.93016636      -0.00240272       0.00017906       0.00078276
V        4.23054611       5.98017082       2.07095581      -8.93008785      -0.00074471       0.00012297       0.00032450
V        3.38254401       4.78602438       4.13165959      -8.94341036       0.00139536      -0.00239579       0.00138452
V        2.53615393       3.59403730       6.21127143      -8.96667441       0.00164758      -0.00045798      -0.00254433
V        1.70895435       2.39729636       8.27915208      -8.95473657      -0.00294784       0.00040691       0.00006467
V        4.22983604       9.55514354       0.00437719      -8.93036783       0.00110469      -0.00007450       0.00066890
V        3.38822878       8.36793186       2.06799193      -8.92656290      -0.00008802      -0.00066134       0.00119982
V        2.53877422       7.17290011       4.13795281      -8.97996547      -0.00030271      -0.00111617      -0.00032254
V        1.70076850       5.97295006       6.21048511      -9.05710268      -0.00042943      -0.00049146      -0.00038149
V        0.85464297       4.77214339       8.27677164      -9.11084110      -0.00337014      -0.00040950       0.00016608
V       10.13768492       0.00575464       0.01250080      -9.26641909      -0.00054051      -0.00121648       0.00103836
V        9.29624806      -1.18024072       2.07579582      -8.98394007      -0.00011146      -0.00136282       0.00078274
V        8.45664648      -2.37478170       4.14131791      -8.97611444       0.00034340      -0.00108350      -0.00008079
V        7.60977045      -3.56940701       6.21601179      -9.23466877       0.00107723      -0.00231652      -0.00066030
V        8.45038021       1.20558795       2.07576873      -9.07783178      -0.00003194      -0.00185911      -0.00017369
V        7.60768275       0.00599752       4.14003325      -8.90664396       0.00280795       0.00078470       0.00167161
V        8.45185489       4.78665716       0.00440687      -9.23050339       0.00116890       0.00271126      -0.00420241
V        7.60224533       3.59363529       2.08562545      -9.11268207       0.00049254       0.00033488      -0.00239306
V        6.76480579       2.39900572       4.15615865      -8.95830027      -0.00065386       0.00007913       0.00168344
V        5.94044044       1.23671744       6.26178350      -8.77275330      -0.00127563      -0.00042803      -0.00125967
V        7.61199353       7.18163333      -0.00098218      -8.98360468       0.00186729       0.00121908      -0.00109847
V        6.75361099       5.98650239       2.08265516      -8.93030621      -0.00242135      -0.00024153       0.00260971
V        5.92138049       4.78923396       4.13393537      -8.91925082      -0.00255136      -0.00070460       0.00134297
V        5.04484727       3.61137318       6.16986027      -8.76247847       0.00033545       0.00092910      -0.00020013
V        4.29585484       2.39110965       8.28085175      -8.73411297      -0.00228052      -0.00098179      -0.00000549
V        6.75223907       9.56249200       0.00492894      -8.96715830       0.00153322      -0.00004891       0.00253619
V        5.91627222       8.36688298       2.07400215      -8.92528844      -0.00086749       0.00027440       0.00089210
V        5.08196387       7.17088362       4.12744759      -8.92709733      -0.00076302      -0.00044174      -0.00029232
V        4.23437582       5.97733992       6.20422381      -9.09430698      -0.00019390      -0.00236250      -0.00279688
V        3.39953642       4.77441801       8.27834402      -9.09181682       0.00075917      -0.00156449       0.00030992
Cr      -0.74884960       2.33707494       0.10783597      -7.76392192      -0.00110639       0.00124974      -0.00376032
Cr      -4.19949162      -2.36495909       8.27558318      -7.82328882       0.00070105      -0.00296637       0.00108826
Cr      -1.67623696       4.80116368      -0.00125738      -7.86684544       0.00088208       0.00386115      -0.00276624
Cr       2.54648104       7.16135964       8.27922539      -7.81980837      -0.00089786       0.00074151      -0.00048970
Cr       9.29026825       2.39152440       0.02257202      -7.80180967      -0.00038551      -0.00214594      -0.00028905
Ti       5.08291138      -3.57663233       6.21773075      -8.20530291       0.00015435      -0.00289979       0.00093349
Ti       3.38966830      -2.38769902       8.28892980      -8.21525628       0.00018232       0.00313150       0.00004056
Ti       6.77453991      -1.17698442       6.23000145      -8.23312216       0.00006804       0.00318198       0.00137453
Ti       5.90023262      -2.36564219       8.25515933      -8.47180439       0.00051950       0.00744908       0.00247232
Ti       5.06126960      -0.03317875       8.29038440      -8.04606989       0.00349183      -0.00134538       0.00024468
