124
Lattice="12.995147041 -0.013548323 0.022358575 -4.344442071 12.248515902 -0.022934774 -4.30710576 -6.130942661 10.617746937" Properties=species:S:1:pos:R:3:forces:R:3 stress="0.003281991468190571 0.00012384402407577562 0.00044205488384068184 0.00012384402407577562 0.003494271435070987 0.00044912027217118165 0.00044205488384068184 0.00044912027217118165 0.00403099128782394" free_energy=-1104.52481002 energy=-1104.51906664 pbc="T T T"
V       -4.27322000      12.13805000       0.01111000      -0.00209900       0.00244000      -0.00258700
V       12.08220000      -1.19965000       2.19455000       0.00098300      -0.00027700       0.00090900
V        6.93775000       9.78257000       4.22952000      -0.00229800      -0.00143800      -0.00042800
V       -6.90388000       8.57064000       6.33688000      -0.00017600       0.00215700       0.00054800
V       -3.46855000      -4.88996000       8.54172000      -0.00099100      -0.00194500      -0.00239300
V       -1.65909000       1.23682000       2.09696000       0.00083500      -0.00112600      -0.00480900
V       -2.57558000       0.02675000       4.24051000      -0.00264500       0.00039300       0.00108200
V       -3.39873000      -1.23163000       6.40192000      -0.00409500      -0.00276500      -0.00026000
V       -2.55948000       3.65963000       2.07928000      -0.00165500      -0.00287700      -0.00302200
V       -3.42760000       2.47059000       4.23287000      -0.00233200       0.00341100      -0.00250500
V       -4.28844000       1.21397000       6.35005000       0.00121000      -0.00034500      -0.00138000
V       -5.10069000      -0.06488000       8.58992000       0.00104900      -0.00152700       0.00388200
V       -2.60454000       7.46614000       0.03865000       0.00411500      -0.00106800       0.00590900
V       -3.46747000       6.16036000       2.11701000      -0.00245900      -0.00433200       0.00469600
V       -4.31067000       4.90948000       4.23917000      -0.00005200       0.00253000       0.00139100
V       -5.16951000       3.70900000       6.36588000      -0.00095000       0.00176700       0.00178900
V       -5.98069000       2.41598000       8.44086000      -0.00250400      -0.00009400       0.00400600
V        8.69636000       8.63837000       1.99636000      -0.00404300      -0.00420500      -0.00108000
V       -5.19335000       7.35568000       4.21541000      -0.00215300      -0.00081200      -0.00080600
V       -6.05289000       6.12553000       6.36501000       0.00131000       0.00192300      -0.00017100
V       -6.94125000       4.88250000       8.58581000       0.00006700       0.00023800       0.00227900
V       -1.65495000      -6.05652000      10.60677000       0.00075800      -0.00024900       0.00103800
V       -2.66591000      10.94669000       1.94790000      -0.00132700      -0.00017800      -0.00197800
V       -3.49292000       9.78593000       4.17090000      -0.00307100       0.00105300      -0.00071100
V       -4.35203000       8.55835000       6.35407000       0.00351100       0.00097800      -0.00179000
V       -5.21213000       7.32715000       8.47377000       0.00097000       0.00193400      -0.00005900
V        1.69725000       2.42355000       0.04159000      -0.00368900      -0.00272600      -0.00203300
V        0.89772000       1.18261000       2.13021000       0.00221200       0.00242100       0.00485500
V        0.01936000       0.00066000       4.23225000      -0.00190100       0.00189200       0.00403400
V       -0.84918000      -1.20660000       6.35538000       0.00164700      -0.00444200      -0.00156300
V       -1.78125000      -2.45947000       8.52339000       0.00025600      -0.00391300      -0.00303000
V        0.84133000       4.86208000      -0.00314000      -0.00072000      -0.00248900      -0.00347200
V        0.02390000       3.62488000       2.11318000       0.00227100      -0.00218300       0.00240000
V       -0.84564000       2.45298000       4.23772000       0.00128800      -0.00335600      -0.00214300
V       -1.71310000       1.25151000       6.36115000       0.00551200      -0.00472000      -0.00137400
V       -2.55716000       0.02430000       8.50192000       0.00123100      -0.00143900      -0.00091700
V       -0.00424000       7.38488000      -0.00371000       0.00683800      -0.00114500      -0.00099400
V       -0.88019000       6.06481000       2.04549000       0.00295600      -0.00245200       0.00332100
V       -1.71337000       4.88585000       4.22818000      -0.00004800      -0.00145400      -0.00049600
V       -2.57771000       3.68175000       6.36518000       0.00326300       0.00216000      -0.00005100
V       -3.44405000       2.46359000       8.50481000      -0.00104000      -0.00203100      -0.00461100
V       -5.32581000       3.68071000      10.58310000       0.00249400      -0.00177100      -0.00509200
V       -1.68914000       8.54839000       2.15838000      -0.00080600       0.00063300      -0.00093600
V       -2.61404000       7.33271000       4.21613000       0.00148900       0.00289200      -0.00207700
V       -3.45377000       6.11041000       6.36337000      -0.00068000       0.00406600      -0.00129800
V       -4.33310000       4.89217000       8.49672000       0.00273500       0.00213600       0.00001300
V       -3.45531000       6.10792000      10.59409000       0.00149200      -0.00023800      -0.00246200
V       -0.02787000      11.01108000       2.04918000      -0.00014300       0.00211700      -0.00272100
V       -0.90304000       9.81120000       4.17097000      -0.00247300      -0.00056600      -0.00440800
V       -1.84331000       8.53198000       6.28724000       0.00102300       0.00415500      -0.00165200
V        1.76112000      -4.89746000       8.52231000       0.00150400       0.00231900      -0.00138300
V        4.32356000       2.46597000       0.01562000       0.00152000       0.00186800      -0.00145300
V        3.46405000       1.21866000       2.12281000       0.00293500       0.00365800       0.00109200
V        2.58213000       0.01008000       4.20366000      -0.00173600      -0.00473800      -0.00531600
V        1.68720000      -1.21072000       6.36128000       0.00713600      -0.00028400      -0.00489600
V        0.80360000      -2.46195000       8.52130000       0.00454900       0.00275000      -0.00179800
V        3.44947000       4.90203000       0.02148000      -0.00271900       0.00321000      -0.00195200
V        2.60080000       3.67170000       2.12714000      -0.00048100      -0.00400300      -0.00102000
V        1.74558000       2.45563000       4.24951000      -0.00028800      -0.00159500      -0.00113300
V        0.86570000       1.25387000       6.37652000       0.00252300      -0.00432900       0.00289600
V        0.00490000       0.01420000       8.51555000       0.00213000       0.00008600       0.00134400
V        2.59944000       7.35265000       0.00748000       0.00010700       0.00247400       0.00146900
V        1.73544000       6.10533000       2.11617000       0.00033000      -0.00128100      -0.00079800
V        0.87606000       4.88436000       4.23208000       0.00266700      -0.00437000       0.00189400
V        0.01576000       3.68578000       6.36483000      -0.00055400      -0.00325500       0.00119900
V       -0.85661000       2.46803000       8.50699000       0.00129100      -0.00026800       0.00301800
V       -2.58596000       3.66932000      10.59906000       0.00031000       0.00001400      -0.00229100
V        0.87260000       8.56537000       2.08094000      -0.00329700       0.00125300       0.00091700
V        0.00366000       7.29130000       4.19707000       0.00188800      -0.00357800       0.00059200
V       -0.83353000       6.12633000       6.36689000      -0.00414700       0.00186900       0.00041900
V       -1.71501000       4.90787000       8.48773000       0.00331900       0.00114500       0.00001000
V        3.45084000      12.23168000      -0.00381000      -0.00049800       0.00196800       0.00079100
V        2.61956000      11.02330000       2.08488000      -0.00290500      -0.00150400       0.00222600
V        1.74175000       9.79928000       4.09210000      -0.00362100       0.00262000       0.00126000
V        4.44009000      -4.94996000       8.61150000      -0.00376900       0.00204200       0.00149500
V        6.95618000       2.42937000       0.06089000       0.00246500      -0.00033800      -0.00423900
V        6.05631000       1.23510000       2.12661000       0.00010700      -0.00512100      -0.00082600
V        5.21751000       0.03762000       4.19938000      -0.00637300      -0.00498900       0.00330400
V        4.17087000      -1.06355000       6.17853000       0.00146700      -0.00480500      -0.00069100
V        6.05765000       4.87162000       0.01436000      -0.00164700      -0.00114200       0.00048000
V        5.19038000       3.69255000       2.13333000      -0.00093200      -0.00708300       0.00258900
V        4.34225000       2.48334000       4.24724000       0.00328100      -0.00387300       0.00222100
V        3.47079000       1.29468000       6.39644000      -0.00060100      -0.00226100      -0.00245200
V        2.51026000       0.07840000       8.51361000       0.00017600       0.00518600       0.00473500
V        5.18810000       7.37092000       0.02300000       0.00113400       0.00261400       0.00040500
V        4.33616000       6.12650000       2.13084000      -0.00202500       0.00010500       0.00332500
V        3.46943000       4.90705000       4.24960000       0.00252800      -0.00229200      -0.00062900
V        2.62283000       3.66433000       6.37999000      -0.00225200       0.00291600      -0.00203800
V        1.77489000       2.48844000       8.54653000      -0.00164800       0.00591800       0.00245600
V        4.34256000       9.80101000      -0.00096000      -0.00154500       0.00101700       0.00157700
V        3.48183000       8.56274000       2.11588000      -0.00268400       0.00325900      -0.00018800
V        2.60363000       7.34152000       4.26191000       0.00102700       0.00353900      -0.00272600
V        1.76610000       6.10190000       6.38818000      -0.00181800       0.00231000      -0.00127500
V        0.87559000       4.87916000       8.51784000       0.00074100       0.00444200       0.00053600
V        6.14387000      -6.09935000      10.63565000      -0.00049700      -0.00196400      -0.00244700
V        5.21722000      11.01468000       2.08696000      -0.00086400       0.00121300       0.00127900
V        8.69542000      -2.44561000       4.27577000      -0.00273700       0.00065800       0.00113700
V        7.90023000      -3.72664000       6.49235000       0.00146700       0.00373500      -0.00162600
V        8.72770000       1.25610000       2.08808000      -0.00067800      -0.00421200      -0.00260200
V        7.86543000       0.03518000       4.19681000      -0.00432600      -0.00051100       0.00347300
V        8.75998000       4.83553000       0.10190000       0.00355800      -0.00041800       0.00250900
V        7.79821000       3.68561000       2.16044000      -0.00083800      -0.00230900       0.00025600
V        6.96009000       2.47366000       4.25606000       0.00001600      -0.00075800       0.00261900
V        6.09294000       1.34572000       6.31906000       0.00129300       0.00547900       0.00444400
V        7.76219000       7.27475000       0.02517000       0.00441700       0.00261500      -0.00044600
V        6.94629000       6.13733000       2.14185000      -0.00243600      -0.00240900      -0.00422200
V        6.08360000       4.92206000       4.25664000       0.00203300       0.00006600       0.00251600
V        5.22882000       3.70986000       6.43120000      -0.00001500       0.00652400       0.00154300
V        4.44672000       2.65241000       8.77402000       0.00175200      -0.00026600       0.00279200
V        7.03798000       9.82486000       0.02530000       0.00150100       0.00096600       0.00161800
V        6.09089000       8.57778000       2.11315000      -0.00184800       0.00045700       0.00252800
V        5.20371000       7.35416000       4.25047000      -0.00162400      -0.00070800       0.00270300
V        4.37854000       6.11746000       6.37265000      -0.00202400       0.00366400       0.00201600
V        3.42693000       5.01608000       8.47323000       0.00225200      -0.00622200       0.00025700
Cr      -0.81935000       2.42350000       0.04227000      -0.00151500      -0.00006700      -0.00235500
Cr      -4.21414000      -2.47216000       8.54624000      -0.00645500      -0.00250400      -0.00143300
Cr      -1.67021000       4.89854000       0.08159000       0.00069300      -0.00324200      -0.00050100
Cr       7.02973000      -4.96226000       8.59550000      -0.00179600       0.00444100      -0.00036100
Cr       9.56370000       2.39912000       0.10911000       0.00213500       0.00057800      -0.00664500
Ti       5.19285000      -3.63128000       6.36424000      -0.00210600      -0.00206200      -0.00459700
Ti       3.46342000      -2.43048000       8.47761000       0.00323900       0.00852700      -0.00115800
Ti       6.92863000      -1.20497000       6.35559000      -0.00601500       0.00512100       0.00458500
Ti       6.25482000      -2.55532000       8.71946000       0.00331600      -0.00099600       0.00535200
Ti       5.19637000       0.06688000       8.50510000       0.00133900       0.00399800       0.00478100
