 vasp.6.4.2 20Jul23 (build Sep 20 2024 16:56:05) complex                         
 executed on              LinuxNV date 2024.12.10  17:26:12
 running    4 mpi-ranks, with    8 threads/rank, on    1 nodes
 distrk:  each k-point on    4 cores,    1 groups
 distr:  one band on NCORE=   1 cores,    4 groups
 OpenACC runtime initialized ...    4 GPUs detected


--------------------------------------------------------------------------------------------------------


 INCAR:
   ENCUT = 520.000000
   POTIM = 0.200000
   SIGMA = 0.200000
   EDIFF = 1.00e-06
   EDIFFG = -1.00e-02
   ALGO = Normal
   GGA = PE
   PREC = Accurate
   IBRION = 2
   ISIF = 2
   ISMEAR = 1
   LORBIT = 11
   NELM = 100
   NSW = -1
   LCHARG = .TRUE.
   LWAVE = .FALSE.
   LREAL = .FALSE.
   NBANDS = 1024
   NSIM = 256

 POTCAR:    PAW_PBE V_pv 07Sep2000                
 POTCAR:    PAW_PBE Cr_pv 02Aug2007               
 POTCAR:    PAW_PBE Ti_pv 07Sep2000               
 POTCAR:    PAW_PBE V_pv 07Sep2000                
   SHA256 =  1175d3c8cb4ffd1d150a520fa74fae5c3ec72c0849b5615a94a5372dd2cf07f7 V_pv/POTCAR           
   COPYR  = (c) Copyright 07Sep2000 Georg Kresse                                                    
   COPYR  = This file is part of the software VASP. Any use, copying, and all other rights are regul
   COPYR  = If you do not have a valid VASP license, you may not use, copy or distribute this file. 
   VRHFIN =V: p6 d4 s1                                                                              
   LEXCH  = PE                                                                                      
   EATOM  =  1321.6206 eV,   97.1364 Ry                                                             
                                                                                                    
   TITEL  = PAW_PBE V_pv 07Sep2000                                                                  
   LULTRA =        F    use ultrasoft PP ?                                                          
   IUNSCR =        1    unscreen: 0-lin 1-nonlin 2-no                                               
   RPACOR =    1.700    partial core radius                                                         
   POMASS =   50.941; ZVAL   =   11.000    mass and valenz                                          
   RCORE  =    2.300    outmost cutoff radius                                                       
   RWIGS  =    2.300; RWIGS  =    1.217    wigner-seitz radius (au A)                               
   ENMAX  =  263.673; ENMIN  =  197.755 eV                                                          
   RCLOC  =    1.779    cutoff for local pot                                                        
   LCOR   =        T    correct aug charges                                                         
   LPAW   =        T    paw PP                                                                      
   EAUG   =  598.473                                                                                
   DEXC   =    0.000                                                                                
   RMAX   =    2.359    core radius for proj-oper                                                   
   RAUG   =    1.300    factor for augmentation sphere                                              
   RDEP   =    2.430    radius for radial grids                                                     
   RDEPT  =    1.700    core radius for aug-charge                                                  
                                                                                                    
   Atomic configuration                                                                             
    8 entries                                                                                       
     n  l   j            E        occ.                                                              
     1  0  0.50     -5360.7193   2.0000                                                             
     2  0  0.50      -598.4546   2.0000                                                             
     2  1  1.50      -499.0155   6.0000                                                             
     3  0  0.50       -66.5711   2.0000                                                             
     3  1  1.50       -40.5282   6.0000                                                             
     3  2  2.50        -2.4291   4.0000                                                             
     4  0  0.50        -3.8743   1.0000                                                             
     4  3  2.50        -1.3606   0.0000                                                             
   Description                                                                                      
     l       E           TYP  RCUT    TYP  RCUT                                                     
     1    -40.5282431     23  2.000                                                                 
     1      5.4423304     23  2.000                                                                 
     2     -2.4290905     23  2.300                                                                 
     2     -1.0472488     23  2.300                                                                 
     0     -3.8742754     23  2.300                                                                 
     0     27.2116520     23  2.300                                                                 
  local pseudopotential read in
  partial core-charges read in
  partial kinetic energy density read in
  atomic valenz-charges read in
  non local Contribution for L=            1  read in
    real space projection operators read in
  non local Contribution for L=            1  read in
    real space projection operators read in
  non local Contribution for L=            2  read in
    real space projection operators read in
  non local Contribution for L=            2  read in
    real space projection operators read in
  non local Contribution for L=            0  read in
    real space projection operators read in
  non local Contribution for L=            0  read in
    real space projection operators read in
    PAW grid and wavefunctions read in
 
   number of l-projection  operators is LMAX  =            6
   number of lm-projection operators is LMMAX =           18
 
 POTCAR:    PAW_PBE Cr_pv 02Aug2007               
   SHA256 =  c9a7df34d3cdbacf1090e328ef39c0b420964e11c23f63548d1ac9dd218cdba0 Cr_pv/POTCAR          
   COPYR  = (c) Copyright 02Aug2007 Georg Kresse                                                    
   COPYR  = This file is part of the software VASP. Any use, copying, and all other rights are regul
   COPYR  = If you do not have a valid VASP license, you may not use, copy or distribute this file. 
   VRHFIN =Cr : p6d5s1                                                                              
   LEXCH  = PE                                                                                      
   EATOM  =  1647.9177 eV,  121.1185 Ry                                                             
                                                                                                    
   TITEL  = PAW_PBE Cr_pv 02Aug2007                                                                 
   LULTRA =        F    use ultrasoft PP ?                                                          
   IUNSCR =        1    unscreen: 0-lin 1-nonlin 2-no                                               
   RPACOR =    2.080    partial core radius                                                         
   POMASS =   51.996; ZVAL   =   12.000    mass and valenz                                          
   RCORE  =    2.300    outmost cutoff radius                                                       
   RWIGS  =    2.500; RWIGS  =    1.323    wigner-seitz radius (au A)                               
   ENMAX  =  265.681; ENMIN  =  199.261 eV                                                          
   ICORE  =        3    local potential                                                             
   LCOR   =        T    correct aug charges                                                         
   LPAW   =        T    paw PP                                                                      
   EAUG   =  519.424                                                                                
   DEXC   =    0.000                                                                                
   RMAX   =    2.356    core radius for proj-oper                                                   
   RAUG   =    1.300    factor for augmentation sphere                                              
   RDEP   =    2.447    radius for radial grids                                                     
   RDEPT  =    1.882    core radius for aug-charge                                                  
                                                                                                    
   Atomic configuration                                                                             
    8 entries                                                                                       
     n  l   j            E        occ.                                                              
     1  0  0.50     -5880.4963   2.0000                                                             
     2  0  0.50      -667.0865   2.0000                                                             
     2  1  1.50      -560.6250   6.0000                                                             
     3  0  0.50       -73.9860   2.0000                                                             
     3  1  1.50       -45.4378   6.0000                                                             
     3  2  2.50        -2.9137   5.0000                                                             
     4  0  0.50        -4.0071   1.0000                                                             
     4  3  2.50        -1.3606   0.0000                                                             
   Description                                                                                      
     l       E           TYP  RCUT    TYP  RCUT                                                     
     1    -45.4377911     23  2.000                                                                 
     1      1.3605826     23  2.000                                                                 
     2     -2.9136672     23  2.300                                                                 
     2     -4.2742498     23  2.300                                                                 
     0     -4.0071320     23  2.300                                                                 
     0      9.4498803     23  2.300                                                                 
     3      2.7211652     23  2.300                                                                 
  local pseudopotential read in
  partial core-charges read in
  partial kinetic energy density read in
  atomic valenz-charges read in
  non local Contribution for L=            1  read in
    real space projection operators read in
  non local Contribution for L=            1  read in
    real space projection operators read in
  non local Contribution for L=            2  read in
    real space projection operators read in
  non local Contribution for L=            2  read in
    real space projection operators read in
  non local Contribution for L=            0  read in
    real space projection operators read in
  non local Contribution for L=            0  read in
    real space projection operators read in
    PAW grid and wavefunctions read in
 
   number of l-projection  operators is LMAX  =            6
   number of lm-projection operators is LMMAX =           18
 
 POTCAR:    PAW_PBE Ti_pv 07Sep2000               
   SHA256 =  f757a1b2c6d082f4c628fa3d987464a8763bf92e53844ac0500b0e2ddc9ce5c0 Ti_pv/POTCAR          
   COPYR  = (c) Copyright 07Sep2000 Georg Kresse                                                    
   COPYR  = This file is part of the software VASP. Any use, copying, and all other rights are regul
   COPYR  = If you do not have a valid VASP license, you may not use, copy or distribute this file. 
   VRHFIN =Ti: d3 s1                                                                                
   LEXCH  = PE                                                                                      
   EATOM  =  1042.5995 eV,   76.6289 Ry                                                             
                                                                                                    
   TITEL  = PAW_PBE Ti_pv 07Sep2000                                                                 
   LULTRA =        F    use ultrasoft PP ?                                                          
   IUNSCR =        1    unscreen: 0-lin 1-nonlin 2-no                                               
   RPACOR =    2.200    partial core radius                                                         
   POMASS =   47.880; ZVAL   =   10.000    mass and valenz                                          
   RCORE  =    2.500    outmost cutoff radius                                                       
   RWIGS  =    2.500; RWIGS  =    1.323    wigner-seitz radius (au A)                               
   ENMAX  =  222.335; ENMIN  =  166.751 eV                                                          
   RCLOC  =    1.701    cutoff for local pot                                                        
   LCOR   =        T    correct aug charges                                                         
   LPAW   =        T    paw PP                                                                      
   EAUG   =  482.848                                                                                
   DEXC   =    0.000                                                                                
   RMAX   =    2.564    core radius for proj-oper                                                   
   RAUG   =    1.300    factor for augmentation sphere                                              
   RDEP   =    2.538    radius for radial grids                                                     
   RDEPT  =    1.952    core radius for aug-charge                                                  
                                                                                                    
   Atomic configuration                                                                             
    8 entries                                                                                       
     n  l   j            E        occ.                                                              
     1  0  0.50     -4865.3608   2.0000                                                             
     2  0  0.50      -533.1368   2.0000                                                             
     2  1  1.50      -440.5031   6.0000                                                             
     3  0  0.50       -59.3186   2.0000                                                             
     3  1  1.50       -35.7012   6.0000                                                             
     3  2  2.50        -1.9157   3.0000                                                             
     4  0  0.50        -3.7291   1.0000                                                             
     4  3  2.50        -1.3606   0.0000                                                             
   Description                                                                                      
     l       E           TYP  RCUT    TYP  RCUT                                                     
     1    -35.7012140     23  2.300                                                                 
     1     -1.3605826     23  2.300                                                                 
     2     -1.9156996     23  2.500                                                                 
     2     -0.4063033     23  2.500                                                                 
     0     -3.7290856     23  2.500                                                                 
     0     20.4087390     23  2.500                                                                 
  local pseudopotential read in
  partial core-charges read in
  partial kinetic energy density read in
  atomic valenz-charges read in
  non local Contribution for L=            1  read in
    real space projection operators read in
  non local Contribution for L=            1  read in
    real space projection operators read in
  non local Contribution for L=            2  read in
    real space projection operators read in
  non local Contribution for L=            2  read in
    real space projection operators read in
  non local Contribution for L=            0  read in
    real space projection operators read in
  non local Contribution for L=            0  read in
    real space projection operators read in
    PAW grid and wavefunctions read in
 
   number of l-projection  operators is LMAX  =            6
   number of lm-projection operators is LMMAX =           18
 
 -----------------------------------------------------------------------------
|                                                                             |
|               ----> ADVICE to this user running VASP <----                  |
|                                                                             |
|     You have a (more or less) 'large supercell' and for larger cells it     |
|     might be more efficient to use real-space projection operators.         |
|     Therefore, try LREAL= Auto in the INCAR file.                           |
|     Mind: For very accurate calculation, you might also keep the            |
|     reciprocal projection scheme (i.e. LREAL=.FALSE.).                      |
|                                                                             |
 -----------------------------------------------------------------------------

  PAW_PBE V_pv 07Sep2000                :
 energy of atom  1       EATOM=-1321.6206
 kinetic energy error for atom=    0.0054 (will be added to EATOM!!)
  PAW_PBE Cr_pv 02Aug2007               :
 energy of atom  2       EATOM=-1647.9177
 kinetic energy error for atom=    0.0057 (will be added to EATOM!!)
  PAW_PBE Ti_pv 07Sep2000               :
 energy of atom  3       EATOM=-1042.5995
 kinetic energy error for atom=    0.0019 (will be added to EATOM!!)
 
 
 POSCAR: V  Cr Ti
  positions in cartesian coordinates
  No initial velocities read in
 exchange correlation table for  LEXCH =        8
   RHO(1)=    0.500       N(1)  =     2000
   RHO(2)=  100.500       N(2)  =     4000
 


--------------------------------------------------------------------------------------------------------


 ion  position               nearest neighbor table
   1  0.008  0.001  0.007-   2 2.57  22 2.59  28 2.60   5 2.62 114 2.62  95 2.62 115 2.62  24 2.85
                           118 3.00
   2  0.996  0.006  0.203-  24 2.39  96 2.52   6 2.53  29 2.55   3 2.55 110 2.56   1 2.57   7 2.86

   3  0.007  0.998  0.399-   2 2.55   4 2.59  30 2.62   7 2.63  19 2.67 111 2.68  97 2.68  18 2.84

   4  0.004  0.001  0.598-   8 2.55  25 2.56  98 2.58  31 2.58   3 2.59 112 2.60  20 2.60   5 2.69
                            19 2.90 116 3.00
   5  0.001  0.003  0.805- 118 2.50 116 2.53  27 2.57 113 2.61  26 2.61   1 2.62  21 2.62   4 2.69
                            98 2.88 114 2.91 115 2.93
   6  0.005  0.202  0.199-   2 2.53 115 2.53   9 2.55  28 2.56  34 2.59  99 2.59  95 2.60   7 2.60
                           119 2.94
   7  0.004  0.199  0.398- 100 2.58  35 2.59   6 2.60  96 2.61  29 2.61  10 2.61   8 2.63   3 2.63
                             2 2.86
   8  0.005  0.199  0.601-  30 2.50   4 2.55  97 2.56  36 2.60  11 2.61 116 2.62   7 2.63 122 2.67

   9  0.001  0.397  0.198-  14 2.53 119 2.53 117 2.54   6 2.55  33 2.58  10 2.61  39 2.63 102 2.64
                           101 2.88 115 2.96
  10  0.005  0.402  0.402-  15 2.55  34 2.56  40 2.59 103 2.60  11 2.60   7 2.61   9 2.61  99 2.64

  11  0.003  0.399  0.600-  35 2.57 100 2.59  10 2.60  41 2.60   8 2.61 104 2.61  16 2.64  12 2.69
                           122 3.01
  12  0.008  0.401  0.809-  36 2.53  37 2.53 117 2.56 116 2.58  17 2.62 124 2.67  11 2.69 122 2.69
                            32 2.86 123 2.98
  13  0.005  0.607  0.009-  43 2.57  37 2.61  14 2.61 105 2.64 124 2.65 117 2.65  17 2.66  24 2.82

  14  0.000  0.593  0.203-  18 2.46 101 2.52   9 2.53  15 2.56  38 2.59  13 2.61  44 2.61 106 2.71
                           117 2.95
  15  0.003  0.598  0.402-  19 2.55  10 2.55  14 2.56  16 2.56  39 2.58  45 2.60 102 2.60 107 2.65

  16  0.005  0.603  0.602-  15 2.56  46 2.56  40 2.58 103 2.59  20 2.60  17 2.61 108 2.62  11 2.64

  17  0.003  0.597  0.800-  41 2.54 109 2.58 104 2.58  42 2.61  16 2.61  12 2.62  21 2.64  13 2.66
                           124 2.93
  18  0.968  0.772  0.216-  24 2.28  19 2.35 111 2.42  14 2.46 105 2.53 106 2.59   3 2.84  44 2.90

  19  0.994  0.793  0.411-  18 2.35  20 2.42  15 2.55 112 2.56  25 2.64  44 2.66   3 2.67 106 2.68
                           107 2.84   4 2.90
  20  0.003  0.803  0.603-  19 2.42  26 2.55 113 2.59  16 2.60   4 2.60  45 2.61 107 2.62  21 2.65

  21  0.001  0.802  0.807- 108 2.58  46 2.61  22 2.61 114 2.62   5 2.62  17 2.64  20 2.65 109 2.77
                            42 2.91
  22  0.207  0.007  0.998-  26 2.51  27 2.54  47 2.56  23 2.57   1 2.59  42 2.61  21 2.61  53 2.63
                            52 2.92
  23  0.245  0.042  0.217-  24 2.26  54 2.35  28 2.46  48 2.47  22 2.57  53 2.66  49 2.80  29 2.86

  24  0.061  0.860  0.123-  23 2.26  18 2.28  43 2.39   2 2.39  13 2.82  42 2.83 110 2.84   1 2.85

  25  0.202  0.003  0.600-  50 2.51   4 2.56  56 2.57  45 2.62  26 2.62  30 2.63  19 2.64  55 2.89

  26  0.199  1.000  0.800-  22 2.51  20 2.55  46 2.60  52 2.61   5 2.61  51 2.62  31 2.62  25 2.62

  27  0.199  0.201  0.002-  28 2.54  22 2.54 115 2.54  32 2.57  31 2.57   5 2.57  58 2.62  52 2.63
                           116 2.92
  28  0.204  0.209  0.201-  23 2.46  33 2.47  27 2.54   6 2.56  59 2.59   1 2.60  29 2.64  53 2.67
                           115 2.93
  29  0.202  0.193  0.398-   2 2.55   7 2.61  60 2.62  30 2.64  28 2.64  54 2.65  34 2.68  23 2.86
                            55 2.87
  30  0.200  0.206  0.604-   8 2.50  55 2.54  35 2.56  61 2.58   3 2.62  31 2.63  25 2.63  29 2.64

  31  0.195  0.201  0.802- 116 2.43  27 2.57   4 2.58  57 2.60  56 2.60  36 2.62  26 2.62  30 2.63

  32  0.196  0.396  0.998- 117 2.50 116 2.50  27 2.57  33 2.60  57 2.60  36 2.62  63 2.63  37 2.65
                            12 2.86 115 2.96
  33  0.201  0.398  0.200-  28 2.47  38 2.56 115 2.57   9 2.58  58 2.58  32 2.60  34 2.60  64 2.62
                           117 2.94
  34  0.202  0.401  0.402-  35 2.56  10 2.56  59 2.57   6 2.59  39 2.60  65 2.60  33 2.60  29 2.68

  35  0.201  0.401  0.598-  30 2.56  34 2.56  60 2.56  11 2.57  40 2.58   7 2.59  66 2.62  36 2.62

  36  0.201  0.404  0.800-  12 2.53  62 2.57  41 2.58  61 2.59   8 2.60  35 2.62  31 2.62  32 2.62
                           116 2.99
  37  0.201  0.603  0.999-  12 2.53  41 2.57  68 2.59  62 2.59  38 2.61  13 2.61  42 2.64  32 2.65
                           117 2.99
  38  0.196  0.591  0.194- 117 2.43  33 2.56  14 2.59  69 2.60  43 2.60  63 2.61  37 2.61  39 2.62

  39  0.202  0.600  0.401-  64 2.57  15 2.58  70 2.59  40 2.59  34 2.60  38 2.62   9 2.63  44 2.69

  40  0.203  0.601  0.601-  65 2.57  71 2.58  35 2.58  16 2.58  10 2.59  39 2.59  41 2.61  45 2.61

  41  0.200  0.602  0.801-  17 2.54  67 2.56  46 2.57  37 2.57  36 2.58  11 2.60  40 2.61  66 2.61

  42  0.196  0.805  0.001-  46 2.59  43 2.60  22 2.61  17 2.61  37 2.64  48 2.65  67 2.68  24 2.83
                            21 2.91
  43  0.210  0.799  0.203-  24 2.39  49 2.50  68 2.53  13 2.57  44 2.57  42 2.60  38 2.60  69 2.85

  44  0.196  0.804  0.397-  50 2.55  43 2.57  14 2.61  45 2.61  69 2.63  19 2.66  39 2.69  18 2.90

  45  0.202  0.801  0.599-  70 2.58  51 2.59  15 2.60  20 2.61  40 2.61  44 2.61  25 2.62  46 2.64
                            50 2.88
  46  0.199  0.800  0.802-  16 2.56  41 2.57  47 2.57  42 2.59  26 2.60  21 2.61  71 2.63  45 2.64

  47  0.400  0.999  0.995-  48 2.55  51 2.55  22 2.56  46 2.57  72 2.59  67 2.60  52 2.63  77 2.65

  48  0.412  0.003  0.196-  23 2.47  73 2.47  47 2.55  78 2.59  68 2.62  42 2.65  49 2.68  53 2.71
                            74 2.91  67 2.92  77 2.92
  49  0.392  0.001  0.394-  79 2.46  43 2.50  50 2.68  48 2.68  69 2.68  74 2.69  54 2.71  23 2.80
                           120 3.04
  50  0.391  0.995  0.598-  25 2.51  44 2.55  51 2.56  70 2.56 120 2.63  55 2.64 121 2.66  49 2.68
                            45 2.88
  51  0.401  0.001  0.800-  47 2.55  50 2.56  45 2.59  71 2.60  76 2.61  26 2.62  56 2.63  75 2.68
                           121 3.02
  52  0.401  0.202  0.998-  53 2.52  56 2.53  57 2.60  81 2.60  26 2.61  47 2.63  27 2.63  76 2.64
                            22 2.92  80 2.92
  53  0.410  0.211  0.198-  52 2.52  58 2.55  77 2.56  82 2.61  22 2.63  54 2.64  23 2.66  28 2.67
                            48 2.71  81 2.84
  54  0.417  0.221  0.407-  23 2.35  83 2.47  59 2.52  78 2.58  53 2.64  29 2.65  55 2.69  79 2.70
                            49 2.71  82 2.87
  55  0.389  0.196  0.594-  79 2.52  30 2.54  60 2.60  56 2.64  50 2.64  84 2.68  54 2.69  29 2.87
                            25 2.89
  56  0.395  0.201  0.801-  52 2.53  80 2.57  25 2.57  31 2.60  61 2.60  51 2.63  55 2.64 121 2.67

  57  0.398  0.402  0.999-  62 2.58  58 2.58  61 2.59  86 2.59  52 2.60  31 2.60  32 2.60  80 2.62

  58  0.402  0.405  0.200-  63 2.52  53 2.55  57 2.58  33 2.58  81 2.60  87 2.61  59 2.61  27 2.62
                            86 2.91
  59  0.402  0.408  0.402-  64 2.52  54 2.52  34 2.57  88 2.57  28 2.59  60 2.61  58 2.61  82 2.65

  60  0.398  0.400  0.599-  35 2.56  55 2.60  65 2.60  61 2.60  59 2.61  29 2.62  83 2.62  89 2.69

  61  0.401  0.404  0.801-  84 2.52  85 2.56  30 2.58  66 2.58  57 2.59  36 2.59  60 2.60  56 2.60

  62  0.400  0.601  0.999-  85 2.57  36 2.57  57 2.58  66 2.58  67 2.59  37 2.59  63 2.61  91 2.61

  63  0.400  0.598  0.199-  58 2.52  86 2.54  68 2.60  38 2.61  62 2.61  64 2.62  32 2.63  92 2.65

  64  0.400  0.601  0.401-  59 2.52  39 2.57  69 2.57  87 2.58  65 2.59  33 2.62  63 2.62  93 2.63

  65  0.401  0.602  0.601-  40 2.57  64 2.59  34 2.60  66 2.60  88 2.60  70 2.60  60 2.60  94 2.60

  66  0.401  0.603  0.801-  71 2.58  62 2.58  61 2.58  90 2.59  65 2.60  41 2.61  35 2.62  89 2.65

  67  0.399  0.799  0.997-  41 2.56  71 2.59  62 2.59  68 2.60  47 2.60  90 2.62  73 2.63  42 2.68
                            48 2.92
  68  0.403  0.799  0.198-  74 2.52  43 2.53  91 2.55  37 2.59  63 2.60  67 2.60  69 2.60  48 2.62

  69  0.394  0.794  0.394-  64 2.57  68 2.60  38 2.60  70 2.61  92 2.63  44 2.63 120 2.66  49 2.68
                            43 2.85
  70  0.401  0.801  0.599-  50 2.56  45 2.58  39 2.59  65 2.60  71 2.60  69 2.61  93 2.61  75 2.68
                           120 2.98
  71  0.401  0.800  0.799-  40 2.58  72 2.58  66 2.58  67 2.59  51 2.60  94 2.60  70 2.60  46 2.63

  72  0.599  0.998  0.997-  75 2.51  76 2.57  73 2.58  71 2.58  90 2.58  47 2.59  99 2.62  95 2.64
                           119 2.98
  73  0.602  0.001  0.198-  48 2.47  96 2.55  74 2.57  72 2.58  91 2.61 100 2.61  77 2.61  67 2.63

  74  0.596  0.995  0.391-  68 2.52  73 2.57  92 2.59  97 2.62  78 2.63 120 2.65 122 2.67  49 2.69
                            48 2.91
  75  0.610  0.001  0.809-  72 2.51  94 2.55 119 2.56 118 2.58  51 2.68  70 2.68 120 2.70 121 2.72
                            95 2.89 123 3.00
  76  0.604  0.199  0.001-  77 2.55  72 2.57 119 2.59 102 2.59  51 2.61  80 2.61  52 2.64 121 2.66

  77  0.604  0.203  0.199-  76 2.55  53 2.56  78 2.58  81 2.59  73 2.61  99 2.62 103 2.62  47 2.65
                           102 2.91  48 2.92
  78  0.607  0.203  0.398-  79 2.52  77 2.58  54 2.58 104 2.59  48 2.59 100 2.59  74 2.63  82 2.66
                           122 2.98
  79  0.578  0.197  0.579-  49 2.46  78 2.52  55 2.52  83 2.54  54 2.70 120 2.70 121 2.72 122 2.79
                           124 2.84
  80  0.597  0.396  0.997- 106 2.56  56 2.57  81 2.59  76 2.61  57 2.62  84 2.63  85 2.65 101 2.72
                            52 2.92 121 2.97
  81  0.600  0.401  0.200-  82 2.58  86 2.59  77 2.59  80 2.59  58 2.60  52 2.60 102 2.61 107 2.61
                           106 2.83  53 2.84
  82  0.607  0.410  0.403-  87 2.57 108 2.58  81 2.58  53 2.61  83 2.61 103 2.62  59 2.65  78 2.66
                            54 2.87 107 2.87
  83  0.603  0.408  0.602-  54 2.47  79 2.54  88 2.55  84 2.59  82 2.61  60 2.62 104 2.64 109 2.80
                           124 2.99
  84  0.594  0.407  0.798-  61 2.52  89 2.52 105 2.54  83 2.59  80 2.63 121 2.67  55 2.68 124 2.69

  85  0.597  0.600  0.999-  61 2.56  62 2.57 111 2.58  90 2.59 105 2.60  89 2.60  86 2.62  80 2.65

  86  0.597  0.599  0.200-  63 2.54 106 2.56  81 2.59  87 2.59  57 2.59  91 2.60  85 2.62 112 2.63
                            58 2.91
  87  0.601  0.605  0.403-  92 2.56  82 2.57  64 2.58  88 2.59  86 2.59 113 2.59 107 2.61  58 2.61

  88  0.601  0.603  0.601-  83 2.55  93 2.57  59 2.57  87 2.59  65 2.60  89 2.60 108 2.62 114 2.64

  89  0.606  0.606  0.804-  84 2.52  94 2.54 110 2.59  88 2.60  85 2.60  66 2.65 109 2.65  60 2.69

  90  0.602  0.801  0.999-  94 2.55  72 2.58  66 2.59  85 2.59  96 2.59  67 2.62  91 2.63 110 2.64

  91  0.600  0.801  0.200- 111 2.45  68 2.55  86 2.60  73 2.61  62 2.61  90 2.63  92 2.64  97 2.65

  92  0.602  0.803  0.404- 112 2.56  87 2.56  74 2.59  93 2.60  69 2.63  91 2.64  63 2.65  98 2.67
                           120 2.99
  93  0.603  0.802  0.605-  88 2.57  94 2.58  92 2.60 113 2.61  70 2.61 118 2.62  64 2.63 120 2.67
                           114 2.90
  94  0.602  0.800  0.802- 114 2.54  89 2.54  90 2.55  75 2.55  93 2.58  71 2.60  65 2.60  95 2.61
                           118 3.00
  95  0.805  0.003  0.999- 118 2.49 119 2.53   6 2.60  94 2.61   1 2.62  96 2.62 110 2.64  72 2.64
                           114 2.89  75 2.89 115 2.93
  96  0.799  0.001  0.199-   2 2.52  73 2.55 111 2.59  90 2.59  99 2.59   7 2.61  95 2.62  97 2.64

  97  0.805  0.004  0.404-   8 2.56 112 2.58 100 2.59  74 2.62  96 2.64  91 2.65  98 2.66   3 2.68
                           122 2.96
  98  0.811  0.003  0.611- 113 2.52 116 2.55   4 2.58 118 2.58  97 2.66  92 2.67 122 2.67 120 2.73
                             5 2.88 123 2.98
  99  0.803  0.201  0.195- 119 2.45 102 2.54   6 2.59  96 2.59 100 2.62  77 2.62  72 2.62  10 2.64

 100  0.805  0.202  0.397-   7 2.58 103 2.58  97 2.59  11 2.59  78 2.59  73 2.61  99 2.62 122 2.65

 101  0.809  0.398  0.007-  14 2.52 119 2.55 117 2.57 102 2.58 105 2.63 121 2.68 124 2.70  80 2.72
                             9 2.88 123 2.96
 102  0.801  0.398  0.203-  99 2.54 106 2.55 103 2.56 101 2.58  76 2.59  15 2.60  81 2.61   9 2.64
                            77 2.91 119 2.99
 103  0.806  0.403  0.403- 104 2.49 102 2.56 100 2.58  16 2.59 107 2.59  10 2.60  82 2.62  77 2.62

 104  0.804  0.407  0.595- 103 2.49 108 2.55  17 2.58  78 2.59  11 2.61  83 2.64 124 2.67 122 2.69

 105  0.794  0.591  0.998-  18 2.53  84 2.54  85 2.60 101 2.63  13 2.64 109 2.65 106 2.65 110 2.65
                           124 2.93
 106  0.790  0.589  0.200- 102 2.55  80 2.56  86 2.56 107 2.56  18 2.59 105 2.65  19 2.68  14 2.71
                           111 2.73  81 2.83
 107  0.800  0.600  0.404- 108 2.56 106 2.56 103 2.59  87 2.61  81 2.61  20 2.62 112 2.65  15 2.65
                            19 2.84  82 2.87
 108  0.805  0.606  0.604- 104 2.55 107 2.56  21 2.58  82 2.58 113 2.58 109 2.62  16 2.62  88 2.62

 109  0.820  0.624  0.816-  17 2.58 114 2.59 108 2.62 105 2.65  89 2.65 124 2.69  21 2.77  83 2.80
                           110 2.85
 110  0.807  0.802  0.005-   2 2.56  89 2.59  90 2.64  95 2.64 111 2.64 105 2.65 114 2.67  24 2.84
                           109 2.85
 111  0.789  0.800  0.201-  18 2.42  91 2.45 112 2.57  85 2.58  96 2.59 110 2.64   3 2.68 106 2.73

 112  0.798  0.803  0.403- 113 2.55  92 2.56  19 2.56 111 2.57  97 2.58   4 2.60  86 2.63 107 2.65

 113  0.803  0.803  0.601-  98 2.52 112 2.55 114 2.58 108 2.58  20 2.59  87 2.59   5 2.61  93 2.61
                           118 2.98
 114  0.801  0.812  0.801- 118 2.38  94 2.54 113 2.58 109 2.59   1 2.62  21 2.62  88 2.64 110 2.67
                            95 2.89  93 2.90   5 2.91
 115  0.003  0.199  0.003-   6 2.53  27 2.54 118 2.56  33 2.57 119 2.59 116 2.61 117 2.61   1 2.62
                           123 2.78  95 2.93   5 2.93  28 2.93  32 2.96   9 2.96
 116  0.009  0.200  0.804-  31 2.43  32 2.50 123 2.53   5 2.53  98 2.55  12 2.58 115 2.61   8 2.62
                            27 2.92  36 2.99   4 3.00 118 3.04 117 3.04 122 3.12
 117  0.009  0.404  0.007-  38 2.43  32 2.50 123 2.52   9 2.54  12 2.56 101 2.57 115 2.61  13 2.65
                            33 2.94  14 2.95  37 2.99 116 3.04 119 3.05 124 3.14
 118  0.808  0.999  0.807- 114 2.38  95 2.49   5 2.50 123 2.52 115 2.56  98 2.58  75 2.58  93 2.62
                           113 2.98  94 3.00   1 3.00 119 3.02 116 3.04
 119  0.805  0.200  0.006-  99 2.45 123 2.51  95 2.53   9 2.53 101 2.55  75 2.56  76 2.59 115 2.59
                             6 2.94  72 2.98 102 2.99 118 3.02 117 3.05 121 3.15
 120  0.596  0.002  0.597-  50 2.63  74 2.65  69 2.66  93 2.67  75 2.70  79 2.70  98 2.73 123 2.80
                           121 2.97  70 2.98  92 2.99 122 3.00  49 3.04
 121  0.599  0.202  0.796-  50 2.66  76 2.66  56 2.67  84 2.67 101 2.68  75 2.72  79 2.72 123 2.79
                           120 2.97  80 2.97  51 3.02 124 3.03 119 3.15
 122  0.799  0.200  0.598- 100 2.65  74 2.67   8 2.67  98 2.67 104 2.69  12 2.69 123 2.78  79 2.79
                            97 2.96  78 2.98 120 3.00  11 3.01 124 3.04 116 3.12
 123  0.820  0.201  0.819- 119 2.51 117 2.52 118 2.52 116 2.53 115 2.78 122 2.78 121 2.79 120 2.80
                           124 2.84 101 2.96  98 2.98  12 2.98  75 3.00
 124  0.802  0.407  0.800-  13 2.65  12 2.67 104 2.67 109 2.69  84 2.69 101 2.70 123 2.84  79 2.84
                            17 2.93 105 2.93  83 2.99 121 3.03 122 3.04 117 3.14
 
  LATTYP: Found a base centered monoclinic cell.
 ALAT       =    15.0482117230
 B/A-ratio  =     1.4081981607
 C/A-ratio  =     1.6569313785
 COS(beta)  =    -0.9052205732
  
  Lattice vectors:
  
 A1 = (   4.3071057600,   6.1309426610, -10.6177469370)
 A2 = ( -12.9951470410,   0.0135483230,  -0.0223585750)
 A3 = (  13.0316404910,  -0.0404660660,  21.2572762500)


Analysis of symmetry for initial positions (statically):
=====================================================================
 Subroutine PRICEL returns:
 Original cell was already a primitive cell.
 

 Routine SETGRP: Setting up the symmetry group for a 
 base centered monoclinic supercell.


 Subroutine GETGRP returns: Found  1 space group operations
 (whereof  1 operations were pure point group operations)
 out of a pool of  4 trial point group operations.


The static configuration has the point symmetry C_1 .


Analysis of symmetry for dynamics (positions and initial velocities):
=====================================================================
 Subroutine PRICEL returns:
 Original cell was already a primitive cell.
 

 Routine SETGRP: Setting up the symmetry group for a 
 base centered monoclinic supercell.


 Subroutine GETGRP returns: Found  1 space group operations
 (whereof  1 operations were pure point group operations)
 out of a pool of  4 trial point group operations.


The dynamic configuration has the point symmetry C_1 .


 Subroutine INISYM returns: Found  1 space group operations
 (whereof  1 operations are pure point group operations),
 and found     1 'primitive' translations


----------------------------------------------------------------------------------------

                                     Primitive cell                                     

  volume of cell :    1689.3617

  direct lattice vectors                    reciprocal lattice vectors
    12.995147041 -0.013548323  0.022358575     0.076899476  0.027363571  0.046994778
    -4.344442071 12.248515902 -0.022934774     0.000004010  0.081732338  0.047195846
    -4.307105760 -6.130942661 10.617746937    -0.000161924  0.000118924  0.094184924

  length of vectors
    12.995173338 12.996185776 12.995236356     0.094184943  0.094380205  0.094185138

  position of ions in fractional coordinates (direct lattice)
     0.008096729  0.000502933  0.007049566
     0.996396425  0.006317150  0.202656636
     0.007430785  0.998350217  0.399405453
     0.003987833  0.001481979  0.598300151
     0.000568841  0.003421338  0.804507378
     0.004780892  0.202435252  0.199440232
     0.003559250  0.199191572  0.398273651
     0.005100708  0.199228531  0.601022538
     0.001380081  0.396907796  0.197819947
     0.005136305  0.401736808  0.401639720
     0.003443997  0.398933651  0.600298961
     0.008413763  0.400728941  0.809396057
     0.004774865  0.607002390  0.008723574
     0.000186100  0.592725362  0.202833979
     0.002999560  0.597777622  0.402425567
     0.004554453  0.602577781  0.601534223
     0.002818230  0.597479455  0.800246992
     0.967904905  0.772013365  0.216187442
     0.993693155  0.793257669  0.411259154
     0.002884421  0.802523516  0.603297596
     0.001128553  0.802405905  0.806583338
     0.206569659  0.007387520  0.998135276
     0.245009586  0.041664056  0.217400384
     0.061415424  0.860056252  0.123170390
     0.201981865  0.002865677  0.600069839
     0.198699447  0.999560975  0.799789008
     0.199146711  0.201347665  0.001756985
     0.204247794  0.208908100  0.201095824
     0.202015406  0.192918825  0.397555884
     0.200230792  0.205975675  0.603702195
     0.195148571  0.200962633  0.802465517
     0.195600676  0.396377903  0.997928702
     0.200680610  0.397548989  0.199996362
     0.201840057  0.400725049  0.401509634
     0.200966520  0.400812421  0.597954468
     0.200826175  0.403645110  0.800405903
     0.200849932  0.602694051  0.999454215
     0.195837249  0.590964581  0.194251663
     0.202005767  0.600492975  0.401210882
     0.202942813  0.601297469  0.601403777
     0.199922651  0.602401802  0.801242110
     0.195866989  0.804567871  0.001025296
     0.210040682  0.798750040  0.203061248
     0.196031074  0.803743446  0.397312229
     0.201892745  0.801120300  0.599419963
     0.199106314  0.799963704  0.801535891
     0.400107734  0.999353342  0.995292070
     0.411994811  0.002554251  0.195870343
     0.392175394  0.000510253  0.394368788
     0.391435836  0.995015586  0.598218110
     0.400792040  0.000610541  0.800038173
     0.400706985  0.202365607  0.997729459
     0.409730892  0.211311490  0.197785405
     0.416959894  0.220587704  0.406619834
     0.389121035  0.196170689  0.594485721
     0.394926125  0.201455201  0.801181305
     0.397819089  0.401576451  0.998762958
     0.401702963  0.404907860  0.199649227
     0.401655228  0.407675160  0.401717005
     0.397862674  0.400177859  0.598688440
     0.400600510  0.403716012  0.801153232
     0.399500422  0.600516330  0.998669251
     0.400314422  0.598387756  0.198951194
     0.399951124  0.600981223  0.401205741
     0.400638842  0.602053497  0.600963678
     0.400533993  0.602527590  0.800948969
     0.398723753  0.799186315  0.996974624
     0.403156684  0.798959246  0.198381065
     0.393597645  0.794253552  0.393661270
     0.400512778  0.801396605  0.598952395
     0.400948063  0.800335427  0.798969964
     0.599434616  0.998325387  0.997477230
     0.602451977  0.001060911  0.197664264
     0.596047213  0.995348995  0.391064259
     0.609870161  0.000906045  0.808542057
     0.603833598  0.198680305  0.001149569
     0.604083306  0.203076891  0.199162882
     0.606632439  0.203390821  0.398313438
     0.577966207  0.197444627  0.579045242
     0.596661977  0.395650948  0.997234221
     0.600130904  0.401254598  0.199612462
     0.607027505  0.409685478  0.403242213
     0.603365243  0.408012551  0.602400615
     0.594369227  0.406593948  0.798195318
     0.597133215  0.600183981  0.998729866
     0.596820851  0.599358646  0.200326124
     0.600654700  0.605339493  0.402825907
     0.600815004  0.602810883  0.600956305
     0.606471181  0.606383196  0.803982001
     0.601676740  0.800892774  0.998519993
     0.600436842  0.800537197  0.200001492
     0.601817251  0.803003328  0.404083931
     0.603380638  0.802284524  0.604724290
     0.602116715  0.800172003  0.802416873
     0.805031861  0.002794969  0.999465781
     0.799213196  0.001431418  0.198691264
     0.804779208  0.004405456  0.404319047
     0.810586815  0.002843455  0.610544938
     0.803265953  0.201095605  0.194945520
     0.805284263  0.201623377  0.397031423
     0.809471040  0.397512395  0.006971181
     0.800781249  0.398182057  0.203043819
     0.805982084  0.402600323  0.403032109
     0.803697088  0.407018563  0.594982664
     0.793616955  0.591408855  0.997960931
     0.789748362  0.589357638  0.199815380
     0.799921547  0.600193969  0.403521598
     0.804915218  0.606478729  0.604143490
     0.819698040  0.624109530  0.815742415
     0.807345329  0.802264322  0.005114895
     0.789161298  0.799875397  0.201119922
     0.798080074  0.803012643  0.402933222
     0.802980750  0.803299696  0.600928806
     0.800881010  0.811571761  0.801162121
     0.003260322  0.199203998  0.002829772
     0.008542269  0.200480264  0.803979133
     0.009047176  0.403806014  0.007398831
     0.807821547  0.999345362  0.807315156
     0.805021514  0.199839625  0.006459388
     0.595990124  0.002438754  0.597165338
     0.598833898  0.202218740  0.796364692
     0.799290671  0.200104182  0.598387622
     0.819665808  0.201021365  0.818612825
     0.802318810  0.406747318  0.800219670

  ion indices of the primitive-cell ions
   primitive index   ion index
                 1           1
                 2           2
                 3           3
                 4           4
                 5           5
                 6           6
                 7           7
                 8           8
                 9           9
                10          10
                11          11
                12          12
                13          13
                14          14
                15          15
                16          16
                17          17
                18          18
                19          19
                20          20
                21          21
                22          22
                23          23
                24          24
                25          25
                26          26
                27          27
                28          28
                29          29
                30          30
                31          31
                32          32
                33          33
                34          34
                35          35
                36          36
                37          37
                38          38
                39          39
                40          40
                41          41
                42          42
                43          43
                44          44
                45          45
                46          46
                47          47
                48          48
                49          49
                50          50
                51          51
                52          52
                53          53
                54          54
                55          55
                56          56
                57          57
                58          58
                59          59
                60          60
                61          61
                62          62
                63          63
                64          64
                65          65
                66          66
                67          67
                68          68
                69          69
                70          70
                71          71
                72          72
                73          73
                74          74
                75          75
                76          76
                77          77
                78          78
                79          79
                80          80
                81          81
                82          82
                83          83
                84          84
                85          85
                86          86
                87          87
                88          88
                89          89
                90          90
                91          91
                92          92
                93          93
                94          94
                95          95
                96          96
                97          97
                98          98
                99          99
               100         100
               101         101
               102         102
               103         103
               104         104
               105         105
               106         106
               107         107
               108         108
               109         109
               110         110
               111         111
               112         112
               113         113
               114         114
               115         115
               116         116
               117         117
               118         118
               119         119
               120         120
               121         121
               122         122
               123         123
               124         124

----------------------------------------------------------------------------------------

 
 
 KPOINTS: KPOINTS created by Atomic Simulation Env

Automatic generation of k-mesh.
 Grid dimensions read from file:
 generate k-points for:    4    4    4

 Generating k-lattice:

  Cartesian coordinates                     Fractional coordinates (reciprocal lattice)
     0.019224869  0.006840893  0.011748694     0.250000000 -0.000000000 -0.000000000
     0.000001002  0.020433085  0.011798961     0.000000000  0.250000000  0.000000000
    -0.000040481  0.000029731  0.023546231     0.000000000  0.000000000  0.250000000

  Length of vectors
     0.023546236  0.023595051  0.023546285

  Shift w.r.t. Gamma in fractional coordinates (k-lattice)
     0.000000000  0.000000000  0.000000000

 
 Subroutine IBZKPT returns following result:
 ===========================================
 
 Found     36 irreducible k-points:
 
 Following reciprocal coordinates:
            Coordinates               Weight
  0.000000  0.000000  0.000000      1.000000
  0.250000  0.000000  0.000000      2.000000
  0.000000  0.000000 -0.250000      2.000000
  0.500000  0.000000  0.000000      1.000000
  0.000000  0.000000  0.500000      1.000000
  0.000000  0.250000  0.000000      2.000000
  0.250000  0.250000  0.000000      2.000000
  0.000000 -0.250000 -0.250000      2.000000
  0.500000  0.250000  0.000000      2.000000
  0.000000 -0.250000  0.500000      2.000000
 -0.250000  0.250000  0.000000      2.000000
  0.000000 -0.250000  0.250000      2.000000
  0.000000  0.500000  0.000000      1.000000
  0.250000  0.500000  0.000000      2.000000
  0.000000  0.500000 -0.250000      2.000000
  0.500000  0.500000  0.000000      1.000000
  0.000000  0.500000  0.500000      1.000000
  0.250000  0.000000  0.250000      2.000000
  0.500000  0.000000  0.250000      2.000000
 -0.250000  0.000000  0.500000      2.000000
 -0.250000  0.000000  0.250000      2.000000
  0.250000  0.250000  0.250000      2.000000
  0.500000  0.250000  0.250000      2.000000
 -0.250000 -0.250000  0.500000      2.000000
 -0.250000  0.250000  0.250000      2.000000
 -0.250000 -0.250000  0.250000      2.000000
  0.250000  0.500000  0.250000      2.000000
  0.500000  0.500000  0.250000      2.000000
 -0.250000  0.500000  0.500000      2.000000
 -0.250000  0.500000  0.250000      2.000000
  0.250000 -0.250000  0.250000      2.000000
  0.500000 -0.250000  0.250000      2.000000
 -0.250000  0.250000  0.500000      2.000000
  0.500000  0.000000  0.500000      1.000000
  0.500000  0.250000  0.500000      2.000000
  0.500000  0.500000  0.500000      1.000000
 
 Following cartesian coordinates:
            Coordinates               Weight
  0.000000  0.000000  0.000000      1.000000
  0.019225  0.006841  0.011749      2.000000
  0.000040 -0.000030 -0.023546      2.000000
  0.038450  0.013682  0.023497      1.000000
 -0.000081  0.000059  0.047092      1.000000
  0.000001  0.020433  0.011799      2.000000
  0.019226  0.027274  0.023548      2.000000
  0.000039 -0.020463 -0.035345      2.000000
  0.038451  0.034115  0.035296      2.000000
 -0.000082 -0.020374  0.035294      2.000000
 -0.019224  0.013592  0.000050      2.000000
 -0.000041 -0.020403  0.011747      2.000000
  0.000002  0.040866  0.023598      1.000000
  0.019227  0.047707  0.035347      2.000000
  0.000042  0.040836  0.000052      2.000000
  0.038452  0.054548  0.047095      1.000000
 -0.000079  0.040926  0.070690      1.000000
  0.019184  0.006871  0.035295      2.000000
  0.038409  0.013712  0.047044      2.000000
 -0.019306 -0.006781  0.035344      2.000000
 -0.019265 -0.006811  0.011798      2.000000
  0.019185  0.027304  0.047094      2.000000
  0.038410  0.034145  0.058843      2.000000
 -0.019307 -0.027215  0.023545      2.000000
 -0.019264  0.013622  0.023596      2.000000
 -0.019266 -0.027244 -0.000001      2.000000
  0.019186  0.047737  0.058893      2.000000
  0.038411  0.054578  0.070642      2.000000
 -0.019304  0.034085  0.058942      2.000000
 -0.019263  0.034055  0.035395      2.000000
  0.019183 -0.013562  0.023496      2.000000
  0.038408 -0.006722  0.035245      2.000000
 -0.019305  0.013652  0.047143      2.000000
  0.038369  0.013741  0.070590      1.000000
  0.038370  0.034174  0.082389      2.000000
  0.038371  0.054607  0.094188      1.000000
 


--------------------------------------------------------------------------------------------------------




 Dimension of arrays:
   k-points           NKPTS =     36   k-points in BZ     NKDIM =     36   number of bands    NBANDS=   1024
   number of dos      NEDOS =    301   number of ions     NIONS =    124
   non local maximal  LDIM  =      6   non local SUM 2l+1 LMDIM =     18
   total plane-waves  NPLWV = 941192
   max r-space proj   IRMAX =      1   max aug-charges    IRDMAX=  21827
   dimension x,y,z NGX =    98 NGY =   98 NGZ =   98
   dimension x,y,z NGXF=   196 NGYF=  196 NGZF=  196
   support grid    NGXF=   196 NGYF=  196 NGZF=  196
   ions per type =             114   5   5
   NGX,Y,Z   is equivalent  to a cutoff of  12.54, 12.54, 12.54 a.u.
   NGXF,Y,Z  is equivalent  to a cutoff of  25.07, 25.07, 25.07 a.u.

 SYSTEM =  unknown system                          
 POSCAR =  V  Cr Ti                                

 Startparameter for this run:
   NWRITE =      2    write-flag & timer
   PREC   = accura    normal or accurate (medium, high low for compatibility)
   ISTART =      0    job   : 0-new  1-cont  2-samecut
   ICHARG =      2    charge: 1-file 2-atom 10-const
   ISPIN  =      1    spin polarized calculation?
   LNONCOLLINEAR =      F non collinear calculations
   LSORBIT =      F    spin-orbit coupling
   INIWAV =      1    electr: 0-lowe 1-rand  2-diag
   LASPH  =      F    aspherical Exc in radial PAW
 Electronic Relaxation 1
   ENCUT  =  520.0 eV  38.22 Ry    6.18 a.u.  24.16 24.16 24.16*2*pi/ulx,y,z
   ENINI  =  520.0     initial cutoff
   ENAUG  =  598.5 eV  augmentation charge cutoff
   NELM   =    100;   NELMIN=  2; NELMDL= -5     # of ELM steps 
   EDIFF  = 0.1E-05   stopping-criterion for ELM
   LREAL  =      F    real-space projection
   NLSPLINE    = F    spline interpolate recip. space projectors
   LCOMPAT=      F    compatible to vasp.4.4
   GGA_COMPAT  = T    GGA compatible to vasp.4.4-vasp.4.6
   LMAXPAW     = -100 max onsite density
   LMAXMIX     =    2 max onsite mixed and CHGCAR
   VOSKOWN=      0    Vosko Wilk Nusair interpolation
   ROPT   =    0.00000   0.00000   0.00000
 Ionic relaxation
   EDIFFG = -.1E-01   stopping-criterion for IOM
   NSW    =     -1    number of steps for IOM
   NBLOCK =      1;   KBLOCK =      1    inner block; outer block 
   IBRION =      2    ionic relax: 0-MD 1-quasi-New 2-CG
   NFREE  =      1    steps in history (QN), initial steepest desc. (CG)
   ISIF   =      2    stress and relaxation
   IWAVPR =     11    prediction:  0-non 1-charg 2-wave 3-comb
   ISYM   =      2    0-nonsym 1-usesym 2-fastsym
   LCORR  =      T    Harris-Foulkes like correction to forces

   POTIM  = 0.2000    time-step for ionic-motion
   TEIN   =    0.0    initial temperature
   TEBEG  =    0.0;   TEEND  =   0.0 temperature during run
   SMASS  =  -3.00    Nose mass-parameter (am)
   estimated Nose-frequenzy (Omega)   =  0.10E-29 period in steps = 0.31E+47 mass=  -0.386E-26a.u.
   SCALEE = 1.0000    scale energy and forces
   NPACO  =    256;   APACO  = 10.0  distance and # of slots for P.C.
   PSTRESS=    0.0 pullay stress

  Mass of Ions in am
   POMASS =  50.94 52.00 47.88
  Ionic Valenz
   ZVAL   =  11.00 12.00 10.00
  Atomic Wigner-Seitz radii
   RWIGS  =  -1.00 -1.00 -1.00
  virtual crystal weights 
   VCA    =   1.00  1.00  1.00
   NELECT =    1364.0000    total number of electrons
   NUPDOWN=      -1.0000    fix difference up-down

 DOS related values:
   EMIN   =  10.00;   EMAX   =-10.00  energy-range for DOS
   EFERMI =   0.00;   METHOD = LEGACY      
   ISMEAR =     1;   SIGMA  =   0.20  broadening in eV -4-tet -1-fermi 0-gaus

 Electronic relaxation 2 (details)
   IALGO  =     38    algorithm
   LDIAG  =      T    sub-space diagonalisation (order eigenvalues)
   LSUBROT=      F    optimize rotation matrix (better conditioning)
   TURBO    =      0    0=normal 1=particle mesh
   IRESTART =      0    0=no restart 2=restart with 2 vectors
   NREBOOT  =      0    no. of reboots
   NMIN     =      0    reboot dimension
   EREF     =   0.00    reference energy to select bands
   IMIX   =      4    mixing-type and parameters
     AMIX     =   0.40;   BMIX     =  1.00
     AMIX_MAG =   1.60;   BMIX_MAG =  1.00
     AMIN     =   0.10
     WC   =   100.;   INIMIX=   1;  MIXPRE=   1;  MAXMIX= -45

 Intra band minimization:
   WEIMIN = 0.0010     energy-eigenvalue tresh-hold
   EBREAK =  0.24E-09  absolut break condition
   DEPER  =   0.30     relativ break condition  

   TIME   =   0.40     timestep for ELM

  volume/ion in A,a.u.               =      13.62        91.94
  Fermi-wavevector in a.u.,A,eV,Ry     =   1.524423  2.880741 31.618097  2.323865
  Thomas-Fermi vector in A             =   2.632732
 
 Write flags
   LWAVE        =      F    write WAVECAR
   LDOWNSAMPLE  =      F    k-point downsampling of WAVECAR
   LCHARG       =      T    write CHGCAR
   LVTOT        =      F    write LOCPOT, total local potential
   LVHAR        =      F    write LOCPOT, Hartree potential only
   LELF         =      F    write electronic localiz. function (ELF)
   LORBIT       =     11    0 simple, 1 ext, 2 COOP (PROOUT), +10 PAW based schemes


 Dipole corrections
   LMONO  =      F    monopole corrections only (constant potential shift)
   LDIPOL =      F    correct potential (dipole corrections)
   IDIPOL =      0    1-x, 2-y, 3-z, 4-all directions 
   EPSILON=  1.0000000 bulk dielectric constant

 Exchange correlation treatment:
   GGA     =    PE    GGA type
   LEXCH   =     8    internal setting for exchange type
   LIBXC   =     F    Libxc                    
   VOSKOWN =     0    Vosko Wilk Nusair interpolation
   LHFCALC =     F    Hartree Fock is set to
   LHFONE  =     F    Hartree Fock one center treatment
   AEXX    =    0.0000 exact exchange contribution

 Linear response parameters
   LEPSILON=     F    determine dielectric tensor
   LRPA    =     F    only Hartree local field effects (RPA)
   LNABLA  =     F    use nabla operator in PAW spheres
   LVEL    =     F    velocity operator in full k-point grid
   CSHIFT  =0.1000    complex shift for real part using Kramers Kronig
   OMEGAMAX=  -1.0    maximum frequency
   DEG_THRESHOLD= 0.2000000E-02 threshold for treating states as degnerate
   RTIME   =   -0.100 relaxation time in fs
  (WPLASMAI=    0.000 imaginary part of plasma frequency in eV, 0.658/RTIME)
   DFIELD  = 0.0000000 0.0000000 0.0000000 field for delta impulse in time
 
  Optional k-point grid parameters
   LKPOINTS_OPT  =     F    use optional k-point grid
   KPOINTS_OPT_MODE=     1    mode for optional k-point grid
 
 Orbital magnetization related:
   ORBITALMAG=     F  switch on orbital magnetization
   LCHIMAG   =     F  perturbation theory with respect to B field
   DQ        =  0.001000  dq finite difference perturbation B field
   LLRAUG    =     F  two centre corrections for induced B field
   LBONE     =     F  B-component reconstruction in AE one-centre
   LVGVCALC  =     T  calculate vGv susceptibility
   LVGVAPPL  =     F  apply vGv susceptibility instead of pGv for G=0

 Random number generation:
   RANDOM_GENERATOR = DEFAULT
   PCG_SEED         = not used


--------------------------------------------------------------------------------------------------------


 conjugate gradient relaxation of ions
 charge density and potential will be updated during run
 non-spin polarized calculation
 Variant of blocked Davidson
 Davidson routine will perform the subspace rotation
 perform sub-space diagonalisation
    after iterative eigenvector-optimisation
 modified Broyden-mixing scheme, WC =      100.0
 initial mixing is a Kerker type mixing with AMIX =  0.4000 and BMIX =      1.0000
 Hartree-type preconditioning will be used
 using additional bands           342
 reciprocal scheme for non local part
 use partial core corrections
 calculate Harris-corrections to forces 
   (improved forces if not selfconsistent)
 use gradient corrections 
 use of overlap-Matrix (Vanderbilt PP)
 Methfessel and Paxton  Order N= 1 SIGMA  =   0.20


--------------------------------------------------------------------------------------------------------


  energy-cutoff  :      520.00
  volume of cell :     1689.36
      direct lattice vectors                 reciprocal lattice vectors
    12.995147041 -0.013548323  0.022358575     0.076899476  0.027363571  0.046994778
    -4.344442071 12.248515902 -0.022934774     0.000004010  0.081732338  0.047195846
    -4.307105760 -6.130942661 10.617746937    -0.000161924  0.000118924  0.094184924

  length of vectors
    12.995173338 12.996185776 12.995236356     0.094184943  0.094380205  0.094185138


 
 k-points in units of 2pi/SCALE and weight: KPOINTS created by Atomic Simulation Env
   0.00000000  0.00000000  0.00000000       0.016
   0.01922487  0.00684089  0.01174869       0.031
   0.00004048 -0.00002973 -0.02354623       0.031
   0.03844974  0.01368179  0.02349739       0.016
  -0.00008096  0.00005946  0.04709246       0.016
   0.00000100  0.02043308  0.01179896       0.031
   0.01922587  0.02727398  0.02354766       0.031
   0.00003948 -0.02046282 -0.03534519       0.031
   0.03845074  0.03411487  0.03529635       0.031
  -0.00008196 -0.02037362  0.03529350       0.031
  -0.01922387  0.01359219  0.00005027       0.031
  -0.00004148 -0.02040335  0.01174727       0.031
   0.00000200  0.04086617  0.02359792       0.016
   0.01922687  0.04770706  0.03534662       0.031
   0.00004249  0.04083644  0.00005169       0.031
   0.03845174  0.05454795  0.04709531       0.016
  -0.00007896  0.04092563  0.07069039       0.016
   0.01918439  0.00687062  0.03529493       0.031
   0.03840926  0.01371152  0.04704362       0.031
  -0.01930583 -0.00678143  0.03534377       0.031
  -0.01926535 -0.00681116  0.01179754       0.031
   0.01918539  0.02730371  0.04709389       0.031
   0.03841026  0.03414460  0.05884258       0.031
  -0.01930683 -0.02721452  0.02354481       0.031
  -0.01926435  0.01362192  0.02359650       0.031
  -0.01926635 -0.02724425 -0.00000142       0.031
   0.01918639  0.04773679  0.05889285       0.031
   0.03841126  0.05457769  0.07064154       0.031
  -0.01930383  0.03408474  0.05894169       0.031
  -0.01926335  0.03405501  0.03539546       0.031
   0.01918339 -0.01356246  0.02349596       0.031
   0.03840825 -0.00672157  0.03524466       0.031
  -0.01930483  0.01365165  0.04714273       0.031
   0.03836878  0.01374125  0.07058985       0.016
   0.03836978  0.03417433  0.08238881       0.031
   0.03837078  0.05460742  0.09418777       0.016
 
 k-points in reciprocal lattice and weights: KPOINTS created by Atomic Simulation Env
   0.00000000  0.00000000  0.00000000       0.016
   0.25000000  0.00000000  0.00000000       0.031
   0.00000000  0.00000000 -0.25000000       0.031
   0.50000000  0.00000000  0.00000000       0.016
   0.00000000  0.00000000  0.50000000       0.016
   0.00000000  0.25000000  0.00000000       0.031
   0.25000000  0.25000000  0.00000000       0.031
   0.00000000 -0.25000000 -0.25000000       0.031
   0.50000000  0.25000000  0.00000000       0.031
   0.00000000 -0.25000000  0.50000000       0.031
  -0.25000000  0.25000000  0.00000000       0.031
   0.00000000 -0.25000000  0.25000000       0.031
   0.00000000  0.50000000  0.00000000       0.016
   0.25000000  0.50000000  0.00000000       0.031
   0.00000000  0.50000000 -0.25000000       0.031
   0.50000000  0.50000000  0.00000000       0.016
   0.00000000  0.50000000  0.50000000       0.016
   0.25000000  0.00000000  0.25000000       0.031
   0.50000000  0.00000000  0.25000000       0.031
  -0.25000000  0.00000000  0.50000000       0.031
  -0.25000000  0.00000000  0.25000000       0.031
   0.25000000  0.25000000  0.25000000       0.031
   0.50000000  0.25000000  0.25000000       0.031
  -0.25000000 -0.25000000  0.50000000       0.031
  -0.25000000  0.25000000  0.25000000       0.031
  -0.25000000 -0.25000000  0.25000000       0.031
   0.25000000  0.50000000  0.25000000       0.031
   0.50000000  0.50000000  0.25000000       0.031
  -0.25000000  0.50000000  0.50000000       0.031
  -0.25000000  0.50000000  0.25000000       0.031
   0.25000000 -0.25000000  0.25000000       0.031
   0.50000000 -0.25000000  0.25000000       0.031
  -0.25000000  0.25000000  0.50000000       0.031
   0.50000000  0.00000000  0.50000000       0.016
   0.50000000  0.25000000  0.50000000       0.031
   0.50000000  0.50000000  0.50000000       0.016
 
 position of ions in fractional coordinates (direct lattice) 
   0.00809673  0.00050293  0.00704957
   0.99639643  0.00631715  0.20265664
   0.00743078  0.99835022  0.39940545
   0.00398783  0.00148198  0.59830015
   0.00056884  0.00342134  0.80450738
   0.00478089  0.20243525  0.19944023
   0.00355925  0.19919157  0.39827365
   0.00510071  0.19922853  0.60102254
   0.00138008  0.39690780  0.19781995
   0.00513631  0.40173681  0.40163972
   0.00344400  0.39893365  0.60029896
   0.00841376  0.40072894  0.80939606
   0.00477487  0.60700239  0.00872357
   0.00018610  0.59272536  0.20283398
   0.00299956  0.59777762  0.40242557
   0.00455445  0.60257778  0.60153422
   0.00281823  0.59747945  0.80024699
   0.96790490  0.77201336  0.21618744
   0.99369315  0.79325767  0.41125915
   0.00288442  0.80252352  0.60329760
   0.00112855  0.80240590  0.80658334
   0.20656966  0.00738752  0.99813528
   0.24500959  0.04166406  0.21740038
   0.06141542  0.86005625  0.12317039
   0.20198186  0.00286568  0.60006984
   0.19869945  0.99956098  0.79978901
   0.19914671  0.20134767  0.00175699
   0.20424779  0.20890810  0.20109582
   0.20201541  0.19291883  0.39755588
   0.20023079  0.20597568  0.60370219
   0.19514857  0.20096263  0.80246552
   0.19560068  0.39637790  0.99792870
   0.20068061  0.39754899  0.19999636
   0.20184006  0.40072505  0.40150963
   0.20096652  0.40081242  0.59795447
   0.20082617  0.40364511  0.80040590
   0.20084993  0.60269405  0.99945422
   0.19583725  0.59096458  0.19425166
   0.20200577  0.60049297  0.40121088
   0.20294281  0.60129747  0.60140378
   0.19992265  0.60240180  0.80124211
   0.19586699  0.80456787  0.00102530
   0.21004068  0.79875004  0.20306125
   0.19603107  0.80374345  0.39731223
   0.20189275  0.80112030  0.59941996
   0.19910631  0.79996370  0.80153589
   0.40010773  0.99935334  0.99529207
   0.41199481  0.00255425  0.19587034
   0.39217539  0.00051025  0.39436879
   0.39143584  0.99501559  0.59821811
   0.40079204  0.00061054  0.80003817
   0.40070699  0.20236561  0.99772946
   0.40973089  0.21131149  0.19778541
   0.41695989  0.22058770  0.40661983
   0.38912103  0.19617069  0.59448572
   0.39492612  0.20145520  0.80118130
   0.39781909  0.40157645  0.99876296
   0.40170296  0.40490786  0.19964923
   0.40165523  0.40767516  0.40171700
   0.39786267  0.40017786  0.59868844
   0.40060051  0.40371601  0.80115323
   0.39950042  0.60051633  0.99866925
   0.40031442  0.59838776  0.19895119
   0.39995112  0.60098122  0.40120574
   0.40063884  0.60205350  0.60096368
   0.40053399  0.60252759  0.80094897
   0.39872375  0.79918632  0.99697462
   0.40315668  0.79895925  0.19838106
   0.39359764  0.79425355  0.39366127
   0.40051278  0.80139661  0.59895239
   0.40094806  0.80033543  0.79896996
   0.59943462  0.99832539  0.99747723
   0.60245198  0.00106091  0.19766426
   0.59604721  0.99534899  0.39106426
   0.60987016  0.00090605  0.80854206
   0.60383360  0.19868030  0.00114957
   0.60408331  0.20307689  0.19916288
   0.60663244  0.20339082  0.39831344
   0.57796621  0.19744463  0.57904524
   0.59666198  0.39565095  0.99723422
   0.60013090  0.40125460  0.19961246
   0.60702751  0.40968548  0.40324221
   0.60336524  0.40801255  0.60240062
   0.59436923  0.40659395  0.79819532
   0.59713322  0.60018398  0.99872987
   0.59682085  0.59935865  0.20032612
   0.60065470  0.60533949  0.40282591
   0.60081500  0.60281088  0.60095630
   0.60647118  0.60638320  0.80398200
   0.60167674  0.80089277  0.99851999
   0.60043684  0.80053720  0.20000149
   0.60181725  0.80300333  0.40408393
   0.60338064  0.80228452  0.60472429
   0.60211672  0.80017200  0.80241687
   0.80503186  0.00279497  0.99946578
   0.79921320  0.00143142  0.19869126
   0.80477921  0.00440546  0.40431905
   0.81058681  0.00284345  0.61054494
   0.80326595  0.20109560  0.19494552
   0.80528426  0.20162338  0.39703142
   0.80947104  0.39751239  0.00697118
   0.80078125  0.39818206  0.20304382
   0.80598208  0.40260032  0.40303211
   0.80369709  0.40701856  0.59498266
   0.79361696  0.59140886  0.99796093
   0.78974836  0.58935764  0.19981538
   0.79992155  0.60019397  0.40352160
   0.80491522  0.60647873  0.60414349
   0.81969804  0.62410953  0.81574242
   0.80734533  0.80226432  0.00511489
   0.78916130  0.79987540  0.20111992
   0.79808007  0.80301264  0.40293322
   0.80298075  0.80329970  0.60092881
   0.80088101  0.81157176  0.80116212
   0.00326032  0.19920400  0.00282977
   0.00854227  0.20048026  0.80397913
   0.00904718  0.40380601  0.00739883
   0.80782155  0.99934536  0.80731516
   0.80502151  0.19983963  0.00645939
   0.59599012  0.00243875  0.59716534
   0.59883390  0.20221874  0.79636469
   0.79929067  0.20010418  0.59838762
   0.81966581  0.20102137  0.81861283
   0.80231881  0.40674732  0.80021967
 
 position of ions in cartesian coordinates  (Angst):
   0.07267000 -0.03717000  0.07502000
  12.04801000 -1.17860000  2.17389000
  -5.96099207  9.77947590  4.21805523
  -2.53155793 -3.65004590  6.35265477
  -3.47257000 -4.89049000  8.54199000
  -1.67635000  1.25671000  2.11307000
  -2.53453000 -0.00204000  4.22428000
  -3.38792000 -1.24465000  6.37705000
  -2.55844000  3.64869000  2.09133000
  -3.40848000  2.45818000  4.25541000
  -4.27394000  1.20590000  6.36475000
  -5.11776000 -0.05414000  8.58496000
  -2.61261000  7.38133000  0.07881000
  -3.44627000  6.01644000  2.14005000
  -4.29132000  4.85460000  4.25921000
  -5.14955000  3.69265000  6.37322000
  -6.00584000  2.41193000  8.48318000
   8.29295704  8.11747168  2.29935858
   7.69559000  7.18136000  4.37067000
  -6.04750000  6.13090000  6.38732000
  -6.94538000  4.88315000  8.54572000
  -1.64676576 -6.03182266 10.60239694
   2.06656207 -0.82586590  2.31282477
  -3.46887000  9.77843000  1.28944000
   0.02777000 -3.64663000  6.37584000
  -5.20518207  7.33698590  8.47347523
   1.70563000  2.45274000  0.01849000
   0.88050000  1.32314000  2.13496000
   0.07478000 -0.07716000  4.22124000
  -0.89303000 -1.18108000  6.40971000
  -1.79339000 -2.46102000  8.52013000
  -3.47836576 -1.26585266 10.59103694
   0.01934000  3.64050000  2.11888000
  -0.84733000  2.44392000  4.25845000
  -1.70517000  1.24061000  6.34423000
  -2.59128000  0.03409000  8.49374000
  -4.31305000  1.25179000 10.60262000
  -0.85914000  6.04484000  2.05334000
  -1.71177000  4.89261000  4.25070000
  -2.56534000  3.67508000  6.37630000
  -3.47011000  2.46345000  8.49804000
  -0.95449424  9.84582266 -0.00318694
  -1.61522000  8.53570000  2.14243000
  -2.65563000  7.40611000  4.20451000
  -3.43856000  6.13479000  6.35063000
  -4.34028000  4.88150000  8.49661000
  -3.42900207  6.13309590 10.55378523
   4.49920207 -1.17516590  2.08885477
   3.39557207 -2.41691590  4.19606477
  -1.81261000  8.51452000  6.33766000
   1.75985000 -4.90294000  8.50355000
   0.03075424 -3.64377266 10.59795694
   3.55460000  1.37009000  2.10435000
   2.70877000  0.20326000  4.32165000
   1.64392000 -1.24723000  6.31630000
   0.80614000 -2.44982000  8.51095000
  -0.87668576 -1.21003266 10.60429694
   2.60118000  3.73004000  2.11952000
   1.71821000  2.52507000  4.26496000
   0.85312000  1.22567000  6.35644000
   0.00129000  0.02767000  8.50614000
  -1.71871576  1.22723734 10.59877694
   1.74558000  6.10418000  2.10764000
   0.85846000  4.89594000  4.25506000
   0.00236000  3.68436000  6.37603000
  -0.86242000  2.46407000  8.49941000
  -2.58462000  3.67105000 10.57621000
   0.91360000  8.56434000  2.09705000
  -0.03127000  7.30958000  4.17038000
  -0.85665000  6.13835000  6.35010000
  -1.70788000  4.89905000  8.47387000
  -0.84366576  6.10440734 10.58146694
   6.97298207 -1.20703590  2.11219477
   1.73713000  9.78588000  4.14272000
   4.43894000 -4.95429000  8.59851000
   6.97880000  2.41831000  0.02115000
   6.11008000  1.25815000  2.12351000
   5.28408000  0.04098000  4.23809000
   4.15896000 -1.13952000  6.15655000
   1.73963424 -1.27593266 10.59264694
   5.19581000  3.68283000  2.12365000
   4.37175000  2.53756000  4.28570000
   3.47363000  1.29609000  6.40027000
   2.51958000  0.07843000  8.47900000
   0.85073424  1.22011734 10.60384694
   4.28907000  6.10498000  2.12661000
   3.44072000  4.93667000  4.27665000
   2.60042000  3.69097000  6.38041000
   1.78395000  2.48991000  8.53613000
   0.03871424  3.67972734 10.59711694
   3.46345000  8.57106000  2.11863000
   2.59167000  7.35003000  4.28550000
   1.75093000  6.11109000  6.41590000
   0.89220000  4.87319000  8.51497000
   6.14456000 -6.10434000 10.63001000
   9.52389000 -1.21146000  2.12749000
   8.69764000 -2.43580000  4.31085000
   7.89166000 -3.71937000  6.50067000
   8.72526000  1.25704000  2.08323000
   7.87879000  0.02450000  4.22896000
   8.76220000  4.81523000  0.08300000
   7.80186000  3.62144000  2.16464000
   6.98888000  2.44937000  4.28808000
   6.11324000  1.32668000  6.32601000
   3.44550424  1.11468734 10.60027694
   6.84184000  5.98300000  2.12573000
   6.04958000  4.86668000  4.28861000
   5.22307000  3.71359000  6.41873000
   4.42720000  2.63204000  8.66536000
   6.98415000  9.78425000  0.05396000
   5.91401000  8.55354000  2.13474000
   5.14705000  7.35454000  4.27767000
   4.35670000  6.14409000  6.38004000
   3.43105000  5.01782000  8.50583000
  -0.83525000  2.42256000  0.02555000
  -4.22279000 -2.47368000  8.53204000
  -1.66861000  4.90054000  0.06950000
   2.67897000  7.27995000  8.56701000
   9.56536000  2.39723000  0.08200000
   5.16233000 -3.63939000  6.35382000
   3.47338000 -2.41370000  8.46435000
   6.94024000 -1.22853000  6.36681000
   6.25250000 -2.56776000  8.70554000
   5.21253000  0.06508000  8.50514000
 


--------------------------------------------------------------------------------------------------------


 k-point   1 :   0.0000 0.0000 0.0000  plane waves:   45567
 k-point   2 :   0.2500 0.0000 0.0000  plane waves:   45468
 k-point   3 :   0.0000 0.0000-0.2500  plane waves:   45468
 k-point   4 :   0.5000 0.0000 0.0000  plane waves:   45464
 k-point   5 :   0.0000 0.0000 0.5000  plane waves:   45464
 k-point   6 :   0.0000 0.2500 0.0000  plane waves:   45468
 k-point   7 :   0.2500 0.2500 0.0000  plane waves:   45502
 k-point   8 :   0.0000-0.2500-0.2500  plane waves:   45502
 k-point   9 :   0.5000 0.2500 0.0000  plane waves:   45494
 k-point  10 :   0.0000-0.2500 0.5000  plane waves:   45494
 k-point  11 :  -0.2500 0.2500 0.0000  plane waves:   45469
 k-point  12 :   0.0000-0.2500 0.2500  plane waves:   45470
 k-point  13 :   0.0000 0.5000 0.0000  plane waves:   45472
 k-point  14 :   0.2500 0.5000 0.0000  plane waves:   45502
 k-point  15 :   0.0000 0.5000-0.2500  plane waves:   45502
 k-point  16 :   0.5000 0.5000 0.0000  plane waves:   45470
 k-point  17 :   0.0000 0.5000 0.5000  plane waves:   45470
 k-point  18 :   0.2500 0.0000 0.2500  plane waves:   45497
 k-point  19 :   0.5000 0.0000 0.2500  plane waves:   45499
 k-point  20 :  -0.2500 0.0000 0.5000  plane waves:   45499
 k-point  21 :  -0.2500 0.0000 0.2500  plane waves:   45470
 k-point  22 :   0.2500 0.2500 0.2500  plane waves:   45516
 k-point  23 :   0.5000 0.2500 0.2500  plane waves:   45501
 k-point  24 :  -0.2500-0.2500 0.5000  plane waves:   45501
 k-point  25 :  -0.2500 0.2500 0.2500  plane waves:   45454
 k-point  26 :  -0.2500-0.2500 0.2500  plane waves:   45454
 k-point  27 :   0.2500 0.5000 0.2500  plane waves:   45493
 k-point  28 :   0.5000 0.5000 0.2500  plane waves:   45500
 k-point  29 :  -0.2500 0.5000 0.5000  plane waves:   45500
 k-point  30 :  -0.2500 0.5000 0.2500  plane waves:   45488
 k-point  31 :   0.2500-0.2500 0.2500  plane waves:   45479
 k-point  32 :   0.5000-0.2500 0.2500  plane waves:   45499
 k-point  33 :  -0.2500 0.2500 0.5000  plane waves:   45499
 k-point  34 :   0.5000 0.0000 0.5000  plane waves:   45474
 k-point  35 :   0.5000 0.2500 0.5000  plane waves:   45488
 k-point  36 :   0.5000 0.5000 0.5000  plane waves:   45516

 maximum and minimum number of plane-waves per node :     45567    45454

 maximum number of plane-waves:     45567
 maximum index in each direction: 
   IXMAX=   24   IYMAX=   24   IZMAX=   24
   IXMIN=  -24   IYMIN=  -24   IZMIN=  -24


 serial   3D FFT for wavefunctions
 parallel 3D FFT for charge:
    minimum data exchange during FFTs selected (reduces bandwidth)


 total amount of memory used by VASP MPI-rank0  8106228. kBytes
=======================================================================

   base      :      30000. kBytes
   nonl-proj :     799080. kBytes
   fftplans  :      67629. kBytes
   grid      :     159195. kBytes
   one-center:       1928. kBytes
   wavefun   :    7048396. kBytes
 
     INWAV:  cpu time      0.0001: real time      0.0000
 Broyden mixing: mesh for mixing (old mesh)
   NGX = 49   NGY = 49   NGZ = 49
  (NGX  =196   NGY  =196   NGZ  =196)
  gives a total of 117649 points

 initial charge density was supplied:
 charge density of overlapping atoms calculated
 number of electron    1364.0000000 magnetization 
 keeping initial charge density in first step


--------------------------------------------------------------------------------------------------------


 Maximum index for augmentation-charges          5251 (set IRDMAX)


--------------------------------------------------------------------------------------------------------


 First call to EWALD:  gamma=   0.149
 Maximum number of real-space cells 3x 3x 3
 Maximum number of reciprocal cells 3x 3x 3

    FEWALD:  cpu time      0.0813: real time      0.0192


--------------------------------------- Ionic step        1  -------------------------------------------




--------------------------------------- Iteration      1(   1)  ---------------------------------------


    POTLOK:  cpu time      0.1101: real time      0.1317
    SETDIJ:  cpu time      0.1080: real time      0.0138
     EDDAV:  cpu time    112.3204: real time    111.6288
       DOS:  cpu time      0.0217: real time      0.0218
    --------------------------------------------
      LOOP:  cpu time    112.5602: real time    111.7961

 eigenvalue-minimisations  : 73728
 total energy-change (2. order) : 0.1393662E+05  (-0.7998571E+05)
 number of electron    1364.0000000 magnetization 
 augmentation part     1364.0000000 magnetization 

 Free energy of the ion-electron system (eV)
  ---------------------------------------------------
  alpha Z        PSCENC =     12315.99909697
  Ewald energy   TEWEN  =   -129554.95761090
  -Hartree energ DENC   =    -36403.80407097
  -exchange      EXHF   =         0.00000000
  -V(xc)+E(xc)   XCENC  =      3692.49163460
  PAW double counting   =    134689.96621064  -132185.80545990
  entropy T*S    EENTRO =        -0.00463006
  eigenvalues    EBANDS =     -2733.95059706
  atomic energy  EATOM  =    164116.68312662
  Solvation  Ediel_sol  =         0.00000000
  ---------------------------------------------------
  free energy    TOTEN  =     13936.61769992 eV

  energy without entropy =    13936.62232998  energy(sigma->0) =    13936.61924327


--------------------------------------------------------------------------------------------------------




--------------------------------------- Iteration      1(   2)  ---------------------------------------


     EDDAV:  cpu time    111.9689: real time    110.8243
       DOS:  cpu time      0.0253: real time      0.0253
    --------------------------------------------
      LOOP:  cpu time    111.9942: real time    110.8496

 eigenvalue-minimisations  : 73728
 total energy-change (2. order) :-0.1479718E+05  (-0.1469029E+05)
 number of electron    1364.0000000 magnetization 
 augmentation part     1364.0000000 magnetization 

 Free energy of the ion-electron system (eV)
  ---------------------------------------------------
  alpha Z        PSCENC =     12315.99909697
  Ewald energy   TEWEN  =   -129554.95761090
  -Hartree energ DENC   =    -36403.80407097
  -exchange      EXHF   =         0.00000000
  -V(xc)+E(xc)   XCENC  =      3692.49163460
  PAW double counting   =    134689.96621064  -132185.80545990
  entropy T*S    EENTRO =         0.02871134
  eigenvalues    EBANDS =    -17531.16431514
  atomic energy  EATOM  =    164116.68312662
  Solvation  Ediel_sol  =         0.00000000
  ---------------------------------------------------
  free energy    TOTEN  =      -860.56267676 eV

  energy without entropy =     -860.59138810  energy(sigma->0) =     -860.57224721


--------------------------------------------------------------------------------------------------------




--------------------------------------- Iteration      1(   3)  ---------------------------------------


     EDDAV:  cpu time    168.7239: real time    162.9585
       DOS:  cpu time      0.0265: real time      0.0266
    --------------------------------------------
      LOOP:  cpu time    168.7504: real time    162.9851

 eigenvalue-minimisations  :110592
 total energy-change (2. order) :-0.4096615E+03  (-0.4068524E+03)
 number of electron    1364.0000000 magnetization 
 augmentation part     1364.0000000 magnetization 

[...]
   -.895E+02 0.167E+03 -.489E+02   0.896E+02 -.168E+03 0.488E+02   -.103E+00 0.520E+00 0.164E+00   0.763E-03 0.134E-02 0.213E-02
   -.230E-01 0.269E+02 0.103E+02   -.428E-01 -.269E+02 -.105E+02   0.735E-01 -.379E-01 0.219E+00   -.961E-03 -.287E-02 -.172E-02
   0.918E+02 -.725E+02 0.149E+03   -.910E+02 0.725E+02 -.150E+03   -.789E+00 -.896E-01 0.414E+00   -.380E-02 -.257E-02 0.590E-03
   0.127E+03 -.127E+03 0.122E+03   -.127E+03 0.128E+03 -.121E+03   -.333E-01 -.668E+00 -.715E+00   -.151E-02 -.230E-02 -.164E-02
   0.936E+02 -.490E+02 0.132E+03   -.937E+02 0.485E+02 -.133E+03   0.770E-01 0.483E+00 0.381E+00   -.634E-03 0.114E-02 0.171E-02
   0.107E+03 -.666E+02 0.123E+03   -.108E+03 0.661E+02 -.122E+03   0.648E+00 0.535E+00 -.699E+00   0.186E-02 -.111E-02 -.220E-02
   0.384E+02 -.123E+03 -.256E+02   -.382E+02 0.122E+03 0.255E+02   -.216E+00 0.275E+00 0.103E+00   -.442E-03 0.539E-03 0.919E-03
   -.680E+02 -.651E+02 0.114E+03   0.677E+02 0.649E+02 -.114E+03   0.290E+00 0.239E+00 -.672E-01   0.116E-02 -.460E-03 -.102E-02
   0.137E+03 0.163E+02 -.482E+02   -.137E+03 -.161E+02 0.478E+02   -.729E-01 -.261E+00 0.384E+00   -.142E-02 -.795E-03 -.731E-04
   0.198E+03 -.146E+03 0.240E+03   -.198E+03 0.146E+03 -.240E+03   -.127E+00 0.303E-01 -.181E+00   -.151E-03 -.190E-02 -.501E-03
   0.413E+02 0.585E+02 0.782E+02   -.415E+02 -.583E+02 -.782E+02   0.201E+00 -.179E+00 -.253E-01   -.611E-03 0.178E-03 -.323E-03
 -----------------------------------------------------------------------------------------------
   0.103E+01 -.452E+00 0.234E+00   0.314E-11 0.171E-12 0.148E-11   -.102E+01 0.453E+00 -.221E+00   -.214E-02 -.312E-02 -.151E-02
 
 
 POSITION                                       TOTAL-FORCE (eV/Angst)
 -----------------------------------------------------------------------------------
      0.07267     -0.03717      0.07502        -0.075721      0.144091      0.030029
     12.04801     -1.17860      2.17389         0.108957     -0.056739      0.108755
     -5.96099      9.77948      4.21806        -0.057861      0.025958      0.060009
     -2.53156     -3.65005      6.35265        -0.010354     -0.003841     -0.005211
     -3.47257     -4.89049      8.54199         0.035880     -0.009921      0.005663
     -1.67635      1.25671      2.11307         0.010256     -0.014360      0.009264
     -2.53453     -0.00204      4.22428        -0.013908      0.006593     -0.029945
     -3.38792     -1.24465      6.37705        -0.004176      0.000311     -0.000541
     -2.55844      3.64869      2.09133         0.000025      0.019517      0.004132
     -3.40848      2.45818      4.25541        -0.000225     -0.002705     -0.008762
     -4.27394      1.20590      6.36475        -0.009343      0.006578      0.012766
     -5.11776     -0.05414      8.58496        -0.009582      0.020137     -0.000343
     -2.61261      7.38133      0.07881         0.078741     -0.150736      0.003109
     -3.44627      6.01644      2.14005        -0.021218      0.052934      0.003413
     -4.29132      4.85460      4.25921         0.005192     -0.033549     -0.027911
     -5.14955      3.69265      6.37322        -0.010978     -0.005459      0.014358
     -6.00584      2.41193      8.48318        -0.006577      0.001787      0.057529
      8.29296      8.11747      2.29936         0.273863      0.323074      0.563499
      7.69559      7.18136      4.37067        -0.039911     -0.040730      0.003739
     -6.04750      6.13090      6.38732        -0.000554     -0.004107      0.003866
     -6.94538      4.88315      8.54572         0.005213      0.007427      0.051280
     -1.64677     -6.03182     10.60240        -0.092234     -0.158054      0.245084
      2.06656     -0.82587      2.31282        -0.299315     -0.330886      0.593270
     -3.46887      9.77843      1.28944         0.025578      0.008454     -2.526763
      0.02777     -3.64663      6.37584        -0.000548     -0.008510      0.003594
     -5.20518      7.33699      8.47348        -0.002175     -0.003591      0.018067
      1.70563      2.45274      0.01849         0.016476     -0.036924      0.003580
      0.88050      1.32314      2.13496         0.021333     -0.051839      0.015111
      0.07478     -0.07716      4.22124        -0.042279      0.050239      0.069614
     -0.89303     -1.18108      6.40971         0.003816     -0.010685      0.012929
     -1.79339     -2.46102      8.52013         0.017910     -0.015748     -0.001743
     -3.47837     -1.26585     10.59104         0.009199      0.004154      0.011023
      0.01934      3.64050      2.11888         0.000085     -0.007742      0.002328
     -0.84733      2.44392      4.25845         0.002709      0.011259      0.004163
     -1.70517      1.24061      6.34423        -0.000488      0.005361      0.001594
     -2.59128      0.03409      8.49374         0.010513     -0.012878      0.006679
     -4.31305      1.25179     10.60262         0.026483     -0.013876      0.012210
     -0.85914      6.04484      2.05334        -0.009082      0.018062      0.009647
     -1.71177      4.89261      4.25070        -0.005495     -0.008648      0.003892
     -2.56534      3.67508      6.37630        -0.003730      0.002131      0.000843
     -3.47011      2.46345      8.49804         0.000861      0.005322     -0.004765
     -0.95449      9.84582     -0.00319         0.198564     -0.041712      0.058741
     -1.61522      8.53570      2.14243        -0.122382      0.030426      0.137280
     -2.65563      7.40611      4.20451         0.020982     -0.038368      0.065334
     -3.43856      6.13479      6.35063         0.002324     -0.002542     -0.005631
     -4.34028      4.88150      8.49661        -0.017034      0.028631     -0.001197
     -3.42900      6.13310     10.55379        -0.046479      0.002824      0.006068
      4.49920     -1.17517      2.08885        -0.102898      0.009256     -0.000769
      3.39557     -2.41692      4.19606         0.053529     -0.017484      0.065172
     -1.81261      8.51452      6.33766        -0.008573      0.007766      0.025999
      1.75985     -4.90294      8.50355        -0.017618      0.013550     -0.001890
      0.03075     -3.64377     10.59796        -0.018298     -0.021950      0.004658
      3.55460      1.37009      2.10435        -0.039396     -0.062966     -0.012744
      2.70877      0.20326      4.32165         0.028006      0.023238     -0.028634
      1.64392     -1.24723      6.31630         0.010663      0.011145     -0.006073
      0.80614     -2.44982      8.51095        -0.000777      0.001998      0.003635
     -0.87669     -1.21003     10.60430         0.007776     -0.009317      0.010577
      2.60118      3.73004      2.11952         0.004334     -0.019059     -0.010736
      1.71821      2.52507      4.26496        -0.001614      0.032756     -0.026745
      0.85312      1.22567      6.35644         0.002473      0.006931     -0.005055
      0.00129      0.02767      8.50614         0.020156     -0.011315     -0.005846
     -1.71872      1.22724     10.59878         0.002982     -0.008807      0.007856
      1.74558      6.10418      2.10764         0.001740      0.002622     -0.008151
      0.85846      4.89594      4.25506         0.002120      0.007530     -0.005779
      0.00236      3.68436      6.37603        -0.001063     -0.001345      0.002404
     -0.86242      2.46407      8.49941         0.008270     -0.005054      0.006528
     -2.58462      3.67105     10.57621         0.004711      0.000656      0.016953
      0.91360      8.56434      2.09705        -0.035809      0.023887     -0.008182
     -0.03127      7.30958      4.17038         0.010462     -0.007475     -0.042211
     -0.85665      6.13835      6.35010        -0.005329     -0.011707      0.001611
     -1.70788      4.89905      8.47387        -0.012465      0.003161      0.011323
     -0.84367      6.10441     10.58147        -0.000253      0.003400      0.011312
      6.97298     -1.20704      2.11219        -0.011817     -0.007071      0.011524
      1.73713      9.78588      4.14272         0.016124      0.018843      0.009826
      4.43894     -4.95429      8.59851        -0.021602      0.007382      0.001463
      6.97880      2.41831      0.02115        -0.012751      0.010209      0.017217
      6.11008      1.25815      2.12351        -0.016594     -0.002528     -0.006490
      5.28408      0.04098      4.23809         0.034635      0.010348     -0.035018
      4.15896     -1.13952      6.15655         0.013208     -0.004641     -0.019164
      1.73963     -1.27593     10.59265         0.024962      0.027803      0.004638
      5.19581      3.68283      2.12365         0.003226      0.007104     -0.022886
      4.37175      2.53756      4.28570         0.017319      0.017355     -0.014967
      3.47363      1.29609      6.40027         0.011952      0.005941      0.007109
      2.51958      0.07843      8.47900         0.003153      0.005713      0.015337
      0.85073      1.22012     10.60385         0.039507     -0.000890      0.007485
      4.28907      6.10498      2.12661         0.013811      0.006812     -0.008600
      3.44072      4.93667      4.27665        -0.002608     -0.002382     -0.008344
      2.60042      3.69097      6.38041         0.010091      0.003043      0.005220
      1.78395      2.48991      8.53613         0.011595     -0.028171     -0.000012
      0.03871      3.67973     10.59712        -0.008022     -0.005081      0.018060
      3.46345      8.57106      2.11863         0.012779      0.000993      0.007762
      2.59167      7.35003      4.28550        -0.004969     -0.001977     -0.006118
      1.75093      6.11109      6.41590         0.008506     -0.011338      0.005931
      0.89220      4.87319      8.51497        -0.000662     -0.004202     -0.000955
      6.14456     -6.10434     10.63001        -0.021894      0.008373      0.020649
      9.52389     -1.21146      2.12749         0.030429     -0.014488     -0.002432
      8.69764     -2.43580      4.31085        -0.003620     -0.005142      0.003343
      7.89166     -3.71937      6.50067        -0.007430     -0.002120     -0.004300
      8.72526      1.25704      2.08323        -0.001703      0.002169     -0.002423
      7.87879      0.02450      4.22896         0.004393      0.000975     -0.006951
      8.76220      4.81523      0.08300        -0.026706      0.050905      0.003917
      7.80186      3.62144      2.16464         0.001824      0.017505     -0.013150
      6.98888      2.44937      4.28808         0.002410      0.004026     -0.005154
      6.11324      1.32668      6.32601         0.008298      0.019281      0.021813
      3.44550      1.11469     10.60028         0.103784      0.175796      0.273130
      6.84184      5.98300      2.12573         0.045364      0.070242     -0.006165
      6.04958      4.86668      4.28861        -0.012456     -0.017463     -0.018226
      5.22307      3.71359      6.41873         0.004869      0.005709      0.022284
      4.42720      2.63204      8.66536        -0.012802     -0.012244      0.007317
      6.98415      9.78425      0.05396        -0.149610      0.030773      0.043654
      5.91401      8.55354      2.13474         0.094556     -0.018729     -0.005112
      5.14705      7.35454      4.27767        -0.040998     -0.006467     -0.022964
      4.35670      6.14409      6.38004        -0.007588     -0.010911      0.016420
      3.43105      5.01782      8.50583         0.006773     -0.010187      0.040189
     -0.83525      2.42256      0.02555         0.006737     -0.001081      0.017324
     -4.22279     -2.47368      8.53204         0.000623     -0.012768      0.012966
     -1.66861      4.90054      0.06950        -0.006518      0.012764      0.007683
      2.67897      7.27995      8.56701         0.000273     -0.011847     -0.005487
      9.56536      2.39723      0.08200        -0.003337     -0.003686      0.010562
      5.16233     -3.63939      6.35382         0.004998     -0.008310     -0.010386
      3.47338     -2.41370      8.46435        -0.006196      0.012285      0.000823
      6.94024     -1.22853      6.36681         0.002966      0.010831      0.017475
      6.25250     -2.56776      8.70554        -0.007963     -0.013189      0.000617
      5.21253      0.06508      8.50514        -0.037758     -0.008802     -0.011298
 -----------------------------------------------------------------------------------
    total drift:                                0.003646     -0.002123      0.011455


--------------------------------------------------------------------------------------------------------



  FREE ENERGIE OF THE ION-ELECTRON SYSTEM (eV)
  ---------------------------------------------------
  free  energy   TOTEN  =     -1101.04775511 eV

  energy  without entropy=    -1101.02741696  energy(sigma->0) =    -1101.04097572
 


--------------------------------------------------------------------------------------------------------


    POTLOK:  cpu time      0.1788: real time      0.0795


--------------------------------------------------------------------------------------------------------




--------------------------------------------------------------------------------------------------------


     LOOP+:  cpu time   6083.1037: real time   5909.4948
    4ORBIT:  cpu time      0.0000: real time      0.0000



 total charge

# of ion       s       p       d       tot
------------------------------------------
    1        0.346   6.227   3.021   9.595
    2        0.376   6.226   3.147   9.749
    3        0.343   6.206   3.018   9.567
    4        0.360   6.244   3.066   9.670
    5        0.359   6.249   3.047   9.654
    6        0.363   6.243   3.092   9.698
    7        0.357   6.240   3.047   9.644
    8        0.359   6.234   3.083   9.675
    9        0.360   6.251   3.068   9.679
   10        0.360   6.243   3.064   9.666
   11        0.354   6.236   3.051   9.641
   12        0.358   6.230   3.067   9.656
   13        0.345   6.220   3.015   9.580
   14        0.361   6.232   3.113   9.707
   15        0.360   6.234   3.095   9.688
   16        0.358   6.237   3.069   9.664
   17        0.363   6.231   3.068   9.662
   18        0.389   6.218   3.229   9.835
   19        0.378   6.232   3.162   9.772
   20        0.360   6.238   3.100   9.698
   21        0.350   6.222   3.020   9.591
   22        0.364   6.232   3.104   9.699
   23        0.386   6.220   3.217   9.823
   24        0.363   6.185   3.246   9.795
   25        0.355   6.216   3.053   9.624
   26        0.358   6.237   3.072   9.667
   27        0.362   6.247   3.085   9.694
   28        0.364   6.238   3.123   9.724
   29        0.345   6.210   3.023   9.578
   30        0.368   6.234   3.095   9.697
   31        0.361   6.244   3.080   9.685
   32        0.361   6.249   3.058   9.668
   33        0.364   6.252   3.083   9.699
   34        0.360   6.242   3.069   9.671
   35        0.361   6.236   3.092   9.689
   36        0.358   6.242   3.070   9.670
   37        0.356   6.241   3.061   9.658
   38        0.361   6.240   3.087   9.688
   39        0.357   6.241   3.048   9.646
   40        0.359   6.241   3.078   9.677
   41        0.361   6.236   3.093   9.691
   42        0.344   6.220   3.017   9.581
   43        0.372   6.224   3.138   9.734
   44        0.343   6.204   3.036   9.583
   45        0.358   6.244   3.043   9.645
   46        0.358   6.240   3.064   9.662
   47        0.359   6.237   3.083   9.679
   48        0.361   6.233   3.093   9.686
   49        0.347   6.202   3.047   9.596
   50        0.366   6.215   3.117   9.698
   51        0.355   6.233   3.065   9.653
   52        0.360   6.242   3.070   9.672
   53        0.363   6.248   3.068   9.679
   54        0.380   6.242   3.143   9.765
   55        0.351   6.208   3.039   9.597
   56        0.358   6.235   3.072   9.665
   57        0.360   6.240   3.067   9.666
   58        0.362   6.243   3.084   9.689
   59        0.360   6.236   3.096   9.693
   60        0.356   6.241   3.043   9.640
   61        0.360   6.234   3.098   9.692
   62        0.360   6.239   3.077   9.677
   63        0.358   6.239   3.067   9.664
   64        0.361   6.240   3.077   9.678
   65        0.359   6.242   3.066   9.666
   66        0.358   6.241   3.057   9.657
   67        0.357   6.242   3.045   9.644
   68        0.360   6.230   3.105   9.695
   69        0.355   6.234   3.043   9.632
   70        0.356   6.232   3.067   9.656
   71        0.359   6.239   3.070   9.667
   72        0.360   6.240   3.085   9.686
   73        0.359   6.238   3.098   9.696
   74        0.356   6.226   3.075   9.657
   75        0.354   6.234   3.045   9.633
   76        0.357   6.235   3.063   9.654
   77        0.358   6.240   3.067   9.666
   78        0.358   6.228   3.088   9.675
   79        0.364   6.224   3.097   9.685
   80        0.355   6.237   3.049   9.642
   81        0.361   6.246   3.070   9.676
   82        0.358   6.243   3.051   9.653
   83        0.356   6.227   3.086   9.669
   84        0.357   6.221   3.098   9.677
   85        0.357   6.237   3.069   9.663
   86        0.360   6.240   3.078   9.677
   87        0.361   6.239   3.079   9.678
   88        0.357   6.234   3.079   9.670
   89        0.356   6.237   3.059   9.652
   90        0.359   6.240   3.063   9.661
   91        0.359   6.242   3.078   9.678
   92        0.355   6.235   3.057   9.647
   93        0.355   6.237   3.050   9.641
   94        0.362   6.238   3.101   9.701
   95        0.357   6.250   3.045   9.651
   96        0.359   6.234   3.080   9.673
   97        0.353   6.235   3.038   9.626
   98        0.355   6.235   3.047   9.637
   99        0.359   6.244   3.075   9.679
  100        0.358   6.233   3.070   9.661
  101        0.355   6.231   3.054   9.640
  102        0.360   6.240   3.083   9.684
  103        0.362   6.236   3.097   9.694
  104        0.357   6.222   3.100   9.679
  105        0.356   6.226   3.067   9.650
  106        0.362   6.245   3.069   9.676
  107        0.359   6.244   3.057   9.659
  108        0.358   6.236   3.080   9.673
  109        0.341   6.206   3.010   9.557
  110        0.346   6.224   3.012   9.582
  111        0.362   6.231   3.116   9.709
  112        0.357   6.231   3.091   9.679
  113        0.359   6.236   3.095   9.691
  114        0.369   6.245   3.088   9.702
  115        0.418   6.342   4.147  10.907
  116        0.425   6.319   4.248  10.992
  117        0.425   6.318   4.243  10.986
  118        0.429   6.319   4.266  11.014
  119        0.426   6.320   4.247  10.993
  120        0.359   6.276   2.127   8.763
  121        0.357   6.273   2.124   8.754
  122        0.357   6.280   2.113   8.751
  123        0.370   6.299   2.155   8.824
  124        0.355   6.280   2.092   8.727
--------------------------------------------------
tot         44.839 773.701 382.4601201.000
 

 total amount of memory used by VASP MPI-rank0  8106228. kBytes
=======================================================================

   base      :      30000. kBytes
   nonl-proj :     799080. kBytes
   fftplans  :      67629. kBytes
   grid      :     159195. kBytes
   one-center:       1928. kBytes
   wavefun   :    7048396. kBytes
 
  
  
 General timing and accounting informations for this job:
 ========================================================
  
                  Total CPU time used (sec):     6219.660
                            User time (sec):     5155.314
                          System time (sec):     1064.346
                         Elapsed time (sec):     6047.376
  
                   Maximum memory used (kb):    12574608.
                   Average memory used (kb):          N/A
  
                          Minor page faults:      4562549
                          Major page faults:           11
                 Voluntary context switches:       414070
