128
Lattice="12.123038219 -0.015476755 0.012330929 -0.015489709 12.161392244 -0.018048251 0.012330998 -0.018049107 12.150357743" Properties=species:S:1:pos:R:3:forces:R:3 stress="2.237581021629148e-05 1.5791018088484645e-06 -3.420347000984025e-06 1.5791018088484645e-06 2.4909862921400085e-05 7.215184549521047e-06 -3.420347000984025e-06 7.215184549521047e-06 2.789954579269816e-05" free_energy=-1155.79664268 energy=-1155.77641161 pbc="T T T"
Cr       0.01535000       3.00300000       9.09233000       0.00148000       0.00060200       0.00023000
Cr       1.51414000      10.63853000      10.59792000       0.00044400       0.00037900       0.00014900
Cr       7.60129000       1.49547000      10.62889000      -0.00037700       0.00000300       0.00099200
Cr      10.60733000       1.54702000       4.55261000       0.00135400      -0.00012500      -0.00033400
Cr       9.11553000      -0.02067000       9.17182000       0.00077400       0.00083300       0.00120500
Cr       9.04865000       6.06693000       6.02694000       0.00087400      -0.00081800       0.00026100
Ti      12.12500000       0.02623000       6.07927000       0.00114500       0.00021800      -0.00008300
Ti       4.53767000      10.65078000      10.59785000       0.00091600      -0.00108300       0.00078000
Ti       7.62001000       1.49637000       7.60664000      -0.00038200       0.00030700       0.00006900
Ti       7.65571000       4.50356000       7.53013000       0.00034900      -0.00088200      -0.00044800
Ti       6.11006000       9.07911000      -0.00694000      -0.00069300       0.00051900       0.00089100
Ti      10.58330000       1.48884000       1.41893000      -0.00100300       0.00085700       0.00005200
Ti       9.03320000       3.01495000       3.04776000       0.00024800      -0.00188000      -0.00032300
Ti      10.59229000       4.61078000       4.62270000       0.00003800       0.00012300      -0.00123700
Ti       9.11123000       6.00463000      12.13464000      -0.00056400       0.00036400       0.00035400
Ti      10.65712000       7.38770000       7.59312000       0.00051100      -0.00026500      -0.00009700
Ti       9.04969000       9.08598000       9.16135000       0.00081000       0.00059300       0.00016300
V        0.00706000      12.10171000      12.03456000      -0.00098400      -0.00044200      -0.00088100
V        1.40358000       1.57991000       1.40646000       0.00038400      -0.00035500      -0.00042600
V       12.02537000       0.07909000       3.09794000      -0.00002400      -0.00159000      -0.00053300
V        1.51169000       1.68879000       4.64382000       0.00094600       0.00039300      -0.00081400
V        1.52308000       1.56962000       7.67026000       0.00043100       0.00020500      -0.00061000
V        0.01849000       0.00383000       9.11713000       0.00032100       0.00063900       0.00010800
V        1.46647000       1.50673000      10.57604000      -0.00064300       0.00107600      -0.00084200
V       12.13001000       3.02912000      12.12629000      -0.00080200      -0.00030400      -0.00149300
V        1.48681000       4.57571000       1.49922000      -0.00073400      -0.00042200      -0.00099700
V       12.10457000       3.02818000       3.04765000       0.00038100      -0.00137200      -0.00062800
V        1.50430000       4.58051000       4.58303000       0.00011800      -0.00081100       0.00057500
V        0.04091000       3.00784000       6.10359000       0.00153900      -0.00022900      -0.00019800
V        1.52156000       4.52212000       7.61142000      -0.00006400      -0.00028200      -0.00119300
V       12.10259000       6.07682000       0.01716000       0.00039600       0.00026500      -0.00055200
V        1.55010000       7.57304000       1.44822000      -0.00134900       0.00047400      -0.00086900
V       12.11629000       6.07384000       2.99305000      -0.00059400      -0.00036800      -0.00119400
V        1.58843000       7.53448000       4.63501000      -0.00009600       0.00035400       0.00055700
V        0.14609000       6.03519000       6.09052000       0.00092600       0.00024200      -0.00027900
V        1.53107000       7.56164000       7.61210000       0.00140500       0.00033400      -0.00105200
V        0.05754000       6.00816000       9.13808000       0.00094700      -0.00002200       0.00016900
V        1.54507000       7.57151000      10.64038000       0.00106300       0.00007400      -0.00058300
V        0.00265000       9.12068000      12.11344000      -0.00092800       0.00054200       0.00082800
V        1.51278000      10.60248000       1.29442000      -0.00218900      -0.00051200       0.00170100
V        1.59722000      10.52550000       4.79991000       0.00142900      -0.00040000      -0.00140500
V        0.07333000       9.12068000       6.09604000       0.00063300       0.00118700       0.00053000
V        1.55244000      10.61741000       7.62879000       0.00062400       0.00060500      -0.00155200
V        2.96406000      -0.00867000      12.10037000      -0.00108000      -0.00006700      -0.00025000
V        4.59056000       1.54585000       1.45093000      -0.00127900       0.00012200      -0.00020800
V        4.61299000       1.58138000       4.63025000      -0.00067900      -0.00012800      -0.00000000
V        3.06798000      -0.00271000       6.18148000      -0.00018100      -0.00121900      -0.00009100
V        4.55500000       1.51025000       7.62000000       0.00034200      -0.00005700       0.00021100
V        2.98882000      -0.01393000       9.09011000      -0.00102500      -0.00038900      -0.00073500
V        4.51858000       1.46199000      10.63351000      -0.00041400      -0.00065500       0.00015800
V        3.03565000       2.99364000      12.11743000      -0.00070100      -0.00010400      -0.00031500
V        4.53943000       4.53795000       1.51040000      -0.00139000      -0.00022800       0.00025900
V        4.58115000       4.55930000       4.57173000      -0.00096600      -0.00071400       0.00003300
V        3.03774000       3.05854000       6.12828000      -0.00045100      -0.00012600      -0.00000000
V        4.55888000       4.50257000       7.58677000       0.00094300      -0.00084000       0.00043100
V        3.06309000       2.99666000       9.09610000      -0.00012300      -0.00084700      -0.00028500
V        4.53753000       4.49640000      10.61228000       0.00028500       0.00029800       0.00064900
V        3.03047000       6.05489000      12.13166000      -0.00063900      -0.00018700      -0.00064600
V        4.51273000       7.59287000       1.54826000       0.00021700      -0.00096000       0.00006500
V        4.58573000       7.59123000       4.54175000       0.00040600      -0.00044200       0.00080900
V        3.05290000       6.04556000       6.10616000      -0.00032600      -0.00008200       0.00052300
V        3.04824000       6.04833000       9.10125000      -0.00018600      -0.00055500       0.00000500
V        4.48488000       7.57925000      10.60826000       0.00048900       0.00029900       0.00031500
V        2.99031000       9.08547000      12.12818000      -0.00175900       0.00078300       0.00047400
V        4.52315000      10.59782000       1.45899000       0.00035200      -0.00032100      -0.00086000
V        3.07869000       9.08169000       3.03190000      -0.00192700       0.00143200       0.00075800
V        4.61639000      10.53954000       4.62405000       0.00023000      -0.00039400      -0.00006400
V        3.06697000       9.08365000       6.11402000      -0.00062600       0.00056100      -0.00065700
V        4.55847000      10.63980000       7.62590000       0.00017200      -0.00044100       0.00013200
V        3.01296000       9.09698000       9.11844000       0.00062700      -0.00014400       0.00017900
V        6.09235000       0.04086000       0.01333000      -0.00060200       0.00049200       0.00022800
V        7.52694000       1.46732000       1.49594000      -0.00157300       0.00089500       0.00072200
V        6.05791000      -0.00712000       3.02118000      -0.00043300       0.00047700       0.00011900
V        7.50664000       1.48159000       4.58589000      -0.00050700       0.00043900       0.00099400
V        6.01285000      12.12606000       6.04611000       0.00146400      -0.00023200       0.00121800
V        6.08841000       0.06022000       9.17402000      -0.00063900      -0.00167400       0.00109800
V        6.06430000       2.98147000      12.12491000       0.00015300       0.00060900       0.00001900
V        7.49042000       4.54217000       1.54470000      -0.00116200       0.00025000       0.00015600
V        6.09045000       3.03110000       3.03389000      -0.00015200       0.00040300       0.00071300
V        7.58914000       4.58814000       4.59644000      -0.00059700      -0.00002800       0.00063800
V        5.98900000       3.01917000       6.01631000       0.00020900      -0.00093900       0.00141300
V        6.02322000       2.97923000       9.18163000       0.00121900      -0.00126700      -0.00016300
V        7.55698000       4.46108000      10.58361000       0.00002000       0.00113600       0.00016300
V        7.58450000       7.60591000       1.59371000      -0.00102600      -0.00066400       0.00064100
V        6.08674000       6.06849000       3.05231000       0.00022800      -0.00036300       0.00073700
V        7.53870000       7.54620000       4.50225000      -0.00044600      -0.00048600       0.00013900
V        6.02928000       6.06091000       6.02352000       0.00095600      -0.00006500      -0.00018500
V        7.58036000       7.39471000       7.54603000       0.00134700       0.00082600      -0.00020500
V        6.04489000       6.00333000       9.10066000       0.00180100      -0.00010800       0.00096700
V        7.52148000       7.50174000      10.56894000      -0.00000000       0.00040900       0.00071400
V        7.57185000      10.66104000       1.51250000      -0.00095000       0.00081200      -0.00013900
V        6.04421000       9.11070000       3.01317000      -0.00004700       0.00104600       0.00108500
V        7.47439000      10.70486000       4.44135000      -0.00020900       0.00016500       0.00041300
V        6.06362000       9.11453000       6.05640000       0.00115200       0.00036300       0.00022900
V        7.53520000      10.82370000       7.67827000       0.00044900      -0.00103500       0.00014400
V        6.11878000       9.08492000       9.07810000       0.00122700      -0.00024600       0.00093000
V        7.59152000      10.71604000      10.62078000       0.00028000      -0.00062600       0.00114000
V        9.02313000      -0.01885000      12.10220000      -0.00166000       0.00042700      -0.00087500
V        9.03342000       0.01358000       3.03417000      -0.00033300       0.00051200       0.00079100
V        9.14279000       0.05320000       6.02816000       0.00143200      -0.00053200       0.00003300
V       10.61065000       1.53411000       7.70209000       0.00083700       0.00068900      -0.00004100
V       10.60657000       1.47546000      10.60095000      -0.00097100       0.00081000      -0.00021800
V        9.01496000       3.00720000      12.08876000       0.00068900      -0.00058100       0.00084700
V       10.68486000       4.53028000       1.52936000      -0.00162500      -0.00023700      -0.00031800
V        9.22558000       2.86452000       5.97470000      -0.00030400      -0.00013400       0.00216300
V       10.67958000       4.45678000       7.62374000       0.00029800       0.00086600      -0.00075000
V        9.13309000       2.97679000       9.22388000       0.00047000      -0.00011700       0.00054700
V       10.65584000       4.43119000      10.57618000      -0.00036700      -0.00028300      -0.00043400
V       10.57407000       7.58778000       1.47650000       0.00004800       0.00010100      -0.00097500
V        9.05287000       6.08831000       2.95969000      -0.00021000      -0.00112500       0.00043900
V       10.53943000       7.38806000       4.58223000      -0.00047600      -0.00066100      -0.00021800
V        9.09881000       6.01682000       9.22562000       0.00110500       0.00063500      -0.00052800
V       10.70204000       7.56506000      10.64456000       0.00042300       0.00036800      -0.00060600
V        9.07859000       9.12241000      -0.00187000      -0.00014200       0.00071000       0.00045600
V       10.52044000      10.72282000       1.42710000      -0.00038500       0.00066300      -0.00063700
V        9.03009000       9.14008000       2.97203000      -0.00061200       0.00016400       0.00057100
V       10.48943000      10.81651000       4.44055000      -0.00068000       0.00236900       0.00056300
V       10.62180000      10.79660000       7.74326000       0.00044400       0.00101300      -0.00144300
V       10.57156000      10.67989000      10.64422000      -0.00049300       0.00081600      -0.00090900
W        1.52214000       4.51050000      10.61422000       0.00085200      -0.00045900      -0.00071300
W        0.02616000       9.13662000       9.14169000       0.00108600       0.00009600      -0.00121900
W        3.03241000       3.04789000       3.02842000       0.00004100       0.00043900      -0.00101700
W        3.03896000       6.08723000       3.04257000      -0.00043400      -0.00112600      -0.00004500
W        4.56272000       7.57954000       7.58830000       0.00041300       0.00025100       0.00002100
W        6.05283000       6.04657000      12.14341000      -0.00017700       0.00036600       0.00075100
Zr      -0.00583000       9.17247000       3.07496000      -0.00291600      -0.00092000      -0.00053700
Zr       2.93469000      12.12066000       3.07959000       0.00119300       0.00024000      -0.00089600
Zr       9.11471000       9.18674000       6.05787000       0.00091600       0.00043100      -0.00060900
