128
Lattice="12.13407612154073 -0.002448297464165054 0.003365587388845699 -0.0024481550187637523 12.149112329652313 -0.004020308910634898 0.003365621958249256 -0.0040202511867883746 12.142100690539106" Properties=species:S:1:pos:R:3:forces:R:3 energy=-1159.708610729813 free_energy=-1159.708610729813 stress="0.0004716418886561907 0.00018809767311139935 -0.00022469543889601392 0.00018809767311139935 -0.000520935201948993 0.00028110467001726125 -0.00022469543889601392 0.00028110467001726125 -4.024061161992785e-05" pbc="T T T"
Cr       0.01199044       3.01437117       9.09291866      -0.00231884      -0.00234207       0.00228708
Cr       1.51880941      10.64392106      10.60633908      -0.00146486      -0.00331278      -0.00223692
Cr       7.61175999       1.51666658      10.60521763      -0.00192539       0.00137724       0.00257221
Cr      10.62059357       1.55434944       4.54187202       0.00045635      -0.00031832      -0.00137119
Cr       9.11458441      -0.00029759       9.15202871      -0.00079836       0.00347405       0.00219434
Cr       9.04227101       6.06784966       6.00903498       0.00221859      -0.00094938      -0.00169874
Ti       0.00367942       0.03763666       6.05488514       0.00130686      -0.00268121      -0.00298750
Ti       4.54567354      10.66983092      10.61909154       0.00018465       0.00017850      -0.00144217
Ti       7.61759837       1.50335414       7.59257968      -0.00145264       0.00407625      -0.00161551
Ti       7.65263825       4.51526884       7.52407385       0.00207440      -0.00169911       0.00121142
Ti       6.13302569       9.09151040       0.00999437       0.00076379      -0.00007650      -0.00464976
Ti      10.59890547       1.49308341       1.40387045       0.00057133       0.00122820       0.00110682
Ti       9.05155172       3.02456133       3.03985221       0.00412380      -0.00031382      -0.00162429
Ti      10.59864855       4.62501383       4.61357308      -0.00069248       0.00411216       0.00098969
Ti       9.11722813       6.02083928      -0.01346403       0.00051727       0.00460352       0.00361573
Ti      10.66253934       7.39385221       7.57332823      -0.00414567      -0.00615594      -0.00039880
Ti       9.05634865       9.10389661       9.15040086      -0.00213539      -0.00078038       0.00182609
V        0.02426353      -0.04472060      -0.10315551       0.00144769       0.00036375      -0.00230812
V        1.40745248       1.58259763       1.41124101      -0.00003940       0.00009683       0.00016628
V       -0.10561434       0.08782159       3.08608258      -0.00142421       0.00384089       0.00062512
V        1.50496848       1.69323358       4.64212749      -0.00240945       0.00372787       0.00335445
V        1.51701529       1.56782975       7.67125752      -0.00010550      -0.00096410      -0.00300285
V        0.01149320       0.01637922       9.11231061       0.00127122      -0.00005312       0.00195916
V        1.45649563       1.51687745      10.56877707       0.00237016       0.00093467      -0.00099068
V        0.00791775       3.06424012      -0.02589545       0.00136097      -0.00152946       0.00008604
V        1.49416219       4.57737774       1.50817079       0.00134923      -0.00017139       0.00088232
V       -0.02346206       3.02954549       3.02795994       0.00273469       0.00083872       0.00012388
V        1.51101586       4.57199665       4.59068757      -0.00245491      -0.00011376      -0.00252991
V        0.03412400       3.00003449       6.09760263       0.00322649      -0.00070242      -0.00018260
V        1.52137492       4.52134687       7.60624191      -0.00156085       0.00070252       0.00079751
V       -0.00056738       6.08970958       0.00686576       0.00184900       0.00147722       0.00029811
V        1.55640563       7.56905324       1.45484695       0.00093505       0.00070271       0.00222698
V       -0.00761503       6.08747312       2.97962815       0.00187428      -0.00023903       0.00104472
V        1.59669694       7.52483806       4.64676557       0.00162962      -0.00110716      -0.00095711
V        0.14965829       6.02786720       6.09350700       0.00092067      -0.00270656      -0.00219286
V        1.52685913       7.56099621       7.60533960      -0.00174252      -0.00048959       0.00138727
V        0.04328050       6.00949380       9.13771288       0.00310160       0.00096626       0.00163907
V        1.55269828       7.59430199      10.63662543      -0.00294012       0.00011398      -0.00233540
V        0.00297538       9.13132612      -0.03342739      -0.00053678      -0.00112419      -0.00182726
V        1.54270803      10.58863236       1.31659934       0.00193266       0.00145678       0.00014806
V        1.62138161      10.52439114       4.79184894       0.00133066       0.00043758       0.00439332
V        0.08920816       9.10485399       6.10090530       0.00007008      -0.00456626      -0.00024941
V        1.56678908      10.60817748       7.62996135      -0.00194475      -0.00073643       0.00138594
V        2.96480367       0.02260588      -0.04723433      -0.00008472       0.00125544       0.00128680
V        4.60170255       1.56293582       1.44608951      -0.00030747      -0.00264681      -0.00076074
V        4.62397498       1.59084650       4.63525502       0.00190793      -0.00043197       0.00244902
V        3.06664490      -0.00549974       6.17748691       0.00124709       0.00111422       0.00263720
V        4.54517306       1.51676574       7.61839953       0.00082320       0.00024389      -0.00153233
V        2.97247099      -0.00822020       9.09833681       0.00187827       0.00203815       0.00281489
V        4.52203131       1.47903682      10.62753454      -0.00049764       0.00388188       0.00100433
V        3.03119229       3.01849716      -0.02638999      -0.00007113      -0.00004086      -0.00008815
V        4.54703274       4.55280493       1.51856696       0.00118058       0.00010010      -0.00236760
V        4.58152235       4.56794252       4.57320458      -0.00177413      -0.00174518      -0.00160377
V        3.03084714       3.05879093       6.13536913       0.00247946      -0.00121367      -0.00105801
V        4.54920356       4.50291330       7.58843751      -0.00001835       0.00038602      -0.00071939
V        3.06135116       3.00942469       9.09437313       0.00034648      -0.00126759       0.00134041
V        4.54262078       4.51612023      10.61132085      -0.00107872       0.00093631       0.00161379
V        3.02944751       6.08355352      -0.01645273      -0.00160365      -0.00164314       0.00059524
V        4.52765928       7.60003618       1.55097544      -0.00149423      -0.00224188       0.00127086
V        4.58787994       7.59509154       4.54222534      -0.00047053      -0.00099000      -0.00070503
V        3.05279260       6.04850647       6.11758984       0.00335555       0.00189941      -0.00182483
V        3.04274849       6.05588780       9.10510079       0.00008768       0.00303151       0.00120513
V        4.49472372       7.59095705      10.61843607       0.00107689      -0.00196369      -0.00463616
V        2.99964484       9.10583429      -0.00499186       0.00015161      -0.00059616      -0.00048657
V        4.53619792      10.59997668       1.45858183      -0.00074235       0.00065247      -0.00099308
V        3.08898180       9.09441483       3.04983208       0.00000519      -0.00191832       0.00011649
V        4.62876812      10.53469186       4.63284515       0.00171705      -0.00156134       0.00069313
V        3.07079215       9.07813060       6.11388486       0.00314130      -0.00374601       0.00323869
V        4.55419990      10.63955648       7.63301551       0.00187280      -0.00120638       0.00241662
V        3.02224521       9.10782817       9.12475694      -0.00105642       0.00162761       0.00131576
V        6.10781663       0.04730843       0.01243501       0.00057588       0.00330910       0.00213025
V        7.54575198       1.48476100       1.48952768      -0.00366063      -0.00137288      -0.00160667
V        6.07453505       0.00586421       3.01368367      -0.00249873      -0.00084632      -0.00049568
V        7.51087461       1.50402097       4.57514984      -0.00200752      -0.00154454      -0.00214350
V        6.01636918      -0.03105104       6.05342845       0.00047550       0.00029620       0.00051196
V        6.09460595       0.08417851       9.16755392       0.00124981       0.00073664       0.00280835
V        6.06053536       3.01418572      -0.01064325       0.00174637      -0.00141823       0.00008947
V        7.49983127       4.55050484       1.54713794      -0.00015023      -0.00040581      -0.00042661
V        6.10212294       3.04464232       3.03120503       0.00056341      -0.00092572       0.00059717
V        7.60148628       4.59878192       4.59230228      -0.00082668       0.00070350       0.00060471
V        5.99005562       3.02976607       5.99974771       0.00173060      -0.00179432      -0.00258996
V        6.01349091       2.97786018       9.18175821       0.00393017       0.00499532      -0.00162843
V        7.56331021       4.48491047      10.57861796      -0.00497815      -0.00319926      -0.00098541
V        7.59674254       7.60772209       1.59897814       0.00142416      -0.00086685      -0.00098830
V        6.09463273       6.08063875       3.05942760      -0.00006520       0.00101994      -0.00105233
V        7.53982794       7.53584764       4.50733309       0.00080107       0.00437467       0.00100334
V        6.02763526       6.06378400       6.02741680       0.00238547      -0.00029404      -0.00107373
V        7.58475566       7.40498799       7.53882870      -0.00134883       0.00289038      -0.00014108
V        6.05110007       6.01435859       9.10159396      -0.00040869       0.00171056       0.00203587
V        7.52536251       7.51639549      10.55727514       0.00195603      -0.00168758      -0.00148372
V        7.59384405      10.67019023       1.52576695      -0.00122423      -0.00282370      -0.00163430
V        6.05983237       9.11399019       3.02015182      -0.00158850      -0.00096177       0.00064151
V        7.47922886      10.70710726       4.45086689       0.00026854      -0.00214671       0.00057923
V        6.06201778       9.11602006       6.06956936       0.00113217       0.00031618       0.00110673
V        7.53820203      10.82869723       7.67434490      -0.00000452       0.00005432      -0.00020601
V        6.12589181       9.09345879       9.08582310      -0.00049428       0.00064270       0.00034313
V        7.61051364      10.72759059      10.61417041       0.00186175      -0.00070041      -0.00165372
V        9.01109838       0.02405247      -0.06479204       0.00081842      -0.00066673      -0.00175662
V        9.04453916       0.01849775       3.02457260      -0.00140767       0.00249546      -0.00156608
V        9.14503515       0.06144598       6.01777695      -0.00214794       0.00233485      -0.00083216
V       10.61529133       1.54499811       7.68913491       0.00019579       0.00195788       0.00157899
V       10.61029971       1.50440472      10.57662731       0.00004243       0.00053516      -0.00239082
V        9.02497413       3.03304621      -0.06463808      -0.00242179       0.00257048      -0.00079207
V       10.70584828       4.53353204       1.51988764      -0.00219430      -0.00046560      -0.00007313
V        9.22810817       2.87187600       5.95950049       0.00144022      -0.00087885      -0.00052056
V       10.68113197       4.46569273       7.61929260      -0.00271537      -0.00031444       0.00185494
V        9.14164275       2.99498229       9.20394093       0.00248812      -0.00320640       0.00068840
V       10.66365730       4.44987237      10.56769969      -0.00215044      -0.00198758       0.00111689
V       10.59966625       7.60004380       1.45769260       0.00092102       0.00151881       0.00294459
V        9.06416115       6.09621276       2.95599841      -0.00117169       0.00271434      -0.00025241
V       10.55084764       7.38605433       4.57144673       0.00006573       0.00252872      -0.00083124
V        9.10859423       6.03738861       9.22110896      -0.00064870      -0.00547523      -0.00191110
V       10.71016342       7.58222834      10.64149752      -0.00195760      -0.00072434       0.00267937
V        9.10225911       9.12782012       0.00819615      -0.00011521       0.00003973      -0.00133415
V       10.53887919      10.73195137       1.41999061       0.00243694      -0.00274448       0.00165063
V        9.04131597       9.14811299       2.96304298      -0.00159329      -0.00102963      -0.00016890
V       10.49397931      10.80735576       4.43839704      -0.00019649       0.00314110      -0.00163216
V       10.64118673      10.80223280       7.74027157      -0.00176661      -0.00006766      -0.00249385
V       10.58254539      10.69733852      10.63271048       0.00185603      -0.00409821      -0.00050707
W        1.52426956       4.52790180      10.61336809       0.00194302       0.00002185       0.00258081
W        0.02679794       9.13551801       9.13448908       0.00240414       0.00279679       0.00726010
W        3.04079712       3.05378185       3.03113058      -0.00484379       0.00241717       0.00307731
W        3.04246269       6.09133157       3.04892143       0.00251859       0.00418790       0.00024097
W        4.56548246       7.58201749       7.59943035      -0.00607794       0.00566206      -0.00345396
W        6.05157722       6.07342617       0.00089813       0.00037680      -0.00408434      -0.00271731
Zr       0.00094445       9.16868532       3.08466933       0.00018121       0.00224540      -0.00162421
Zr       2.96253172      -0.03225092       3.08818554      -0.00753675      -0.00505958      -0.00247425
Zr       9.13299536       9.19116561       6.04434151      -0.00118835      -0.00195674      -0.00162640
