124
Lattice="12.995147041 -0.013548323 0.022358575 -4.344442071 12.248515902 -0.022934774 -4.30710576 -6.130942661 10.617746937" Properties=species:S:1:pos:R:3:forces:R:3 stress="0.003520535705472704 -8.889781447995524e-05 0.0006103134868562426 -8.889781447995524e-05 0.003237907689234458 -0.00030289419636998863 0.0006103134868562426 -0.00030289419636998863 0.0034802654885925043" free_energy=-1104.49639404 energy=-1104.49643091 pbc="T T T"
V        0.03686000       0.03433000       0.04949000      -0.00130600       0.00246900      -0.00352400
V       12.09573000      -1.18919000       2.08946000       0.00045200       0.00604600      -0.00297100
V       -1.57314000      -2.43822000       4.24651000       0.00332800       0.00111000      -0.00001300
V       -2.52998000      -3.67023000       6.35838000      -0.00017500       0.00040500       0.00064900
V       -3.46231000      -4.87166000       8.53571000      -0.00016900       0.00125100       0.00092400
V       -1.66460000       1.23760000       2.13319000      -0.00221600       0.00323600      -0.00237100
V       -2.54602000      -0.00445000       4.23120000       0.00028700       0.00405100       0.00043700
V       -3.40484000      -1.24788000       6.37787000      -0.00038400      -0.00004600       0.00025500
V       -2.55861000       3.66586000       2.08581000       0.00131400       0.00016400      -0.00083800
V       -3.42582000       2.46871000       4.23439000      -0.00320800       0.00173900       0.00113700
V       -4.30008000       1.21396000       6.36556000      -0.00137900      -0.00017500       0.00266100
V       -5.10788000      -0.05416000       8.57933000       0.00011200      -0.00298900       0.00165200
V       -2.59315000       7.35477000       0.04064000       0.00001400      -0.00042900      -0.00032300
V       -3.45936000       6.16360000       2.15333000       0.00059000      -0.00024400      -0.00025000
V       -4.29345000       4.91042000       4.24102000       0.00012000      -0.00250700       0.00002500
V       -5.16543000       3.69427000       6.36804000       0.00060100      -0.00325500       0.00230300
V       -6.04841000       2.45017000       8.50630000       0.00167000      -0.00230500      -0.00098700
V       -4.28416000       8.65515000       2.22322000       0.00141100       0.00241800       0.00235900
V        7.75491000       7.26355000       4.26120000       0.00124600      -0.00528000       0.00407600
V       -6.03859000       6.14435000       6.37774000      -0.00101300      -0.00154500       0.00150100
V       -6.90583000       4.92932000       8.49564000       0.00068200      -0.00084600      -0.00367000
V        2.60152000       0.00246000       0.01651000      -0.00015500       0.00157500      -0.00230800
V        1.68905000      -1.27465000       2.22161000      -0.00140200       0.00379700      -0.00479600
V       -3.47355000       9.82800000       0.02408000       0.00235600       0.00259200      -0.00190600
V        0.02392000      -3.63772000       6.30762000      -0.00052900      -0.00144700      -0.00053700
V       -0.85098000      -4.90085000       8.51454000       0.00216300      -0.00015400      -0.00058300
V        1.71615000       2.42980000       0.04794000       0.00069500       0.00322500      -0.00125300
V        0.89627000       1.19181000       2.16648000      -0.00030700       0.00308100      -0.00195500
V        0.04276000      -0.11047000       4.23758000      -0.00272700       0.00489800      -0.00332500
V       -0.91215000      -1.17553000       6.42836000      -0.00543700      -0.00028700       0.00081400
V       -1.78137000      -2.46812000       8.52583000      -0.00141100      -0.00038100       0.00083900
V        0.83992000       4.86579000      -0.00051000       0.00257600       0.00274600       0.00055300
V        0.02307000       3.62709000       2.12116000       0.00065300       0.00320300      -0.00130800
V       -0.85155000       2.44442000       4.24539000      -0.00122700       0.00246100      -0.00092300
V       -1.71799000       1.24598000       6.34571000      -0.00216000       0.00149600       0.00241600
V       -2.57384000       0.03073000       8.51318000       0.00097200      -0.00087400       0.00071900
V       -4.27660000       1.23498000      10.59875000       0.00041600      -0.00062200       0.00118500
V       -0.87311000       6.06629000       2.07033000      -0.00002500      -0.00127700      -0.00086300
V       -1.71882000       4.88964000       4.23445000       0.00018000       0.00120000       0.00180300
V       -2.57767000       3.67756000       6.36581000      -0.00146500       0.00168900       0.00183300
V       -3.44786000       2.45471000       8.48598000       0.00224100      -0.00102600       0.00235500
V       -5.18865000       3.69998000      10.59604000       0.00206500      -0.00159300      -0.00262600
V       -1.68699000       8.54895000       2.03404000      -0.00140600      -0.00336700      -0.00425800
V       -2.63405000       7.41841000       4.21944000      -0.00112100      -0.00136500       0.00027900
V       -3.45574000       6.13457000       6.35509000       0.00176700       0.00091200       0.00078900
V       -4.31283000       4.90421000       8.49029000       0.00190500      -0.00061000      -0.00218300
V        0.88621000      -6.12539000      10.61736000       0.00025300      -0.00088500       0.00228000
V       -0.02406000      11.02275000       2.09415000      -0.00242400      -0.00112000       0.00087000
V       -1.02468000       9.77833000       4.15222000      -0.00688200       0.00321400      -0.00394000
V       -1.79485000       8.49934000       6.34594000       0.00479400       0.00271400       0.00223300
V        1.74824000      -4.88420000       8.50851000      -0.00035000       0.00121900      -0.00063200
V        4.31791000       2.45190000       0.01312000       0.00095400       0.00091100       0.00025700
V        3.47596000       1.23275000       2.10272000       0.00061500       0.00058600       0.00015700
V        2.64925000       0.10625000       4.22460000      -0.00147200       0.00532200      -0.00415600
V        1.61798000      -1.26664000       6.25931000      -0.00402700       0.00106800      -0.00746900
V        0.80196000      -2.45825000       8.49617000       0.00243300      -0.00225400      -0.00522100
V        3.45393000       4.90418000       0.01805000       0.00026800       0.00052700       0.00061100
V        2.60302000       3.67912000       2.12405000       0.00269800       0.00342700       0.00025500
V        1.72328000       2.47221000       4.24909000       0.00077700       0.00063700       0.00007400
V        0.85748000       1.22289000       6.35768000      -0.00051200      -0.00226600      -0.00141300
V        0.01660000       0.00436000       8.51030000       0.00177200      -0.00203600      -0.00170500
V        2.61225000       7.35615000       0.00865000      -0.00118100      -0.00087300      -0.00051700
V        1.74444000       6.11297000       2.11144000       0.00103600       0.00017600      -0.00013200
V        0.87239000       4.88837000       4.23253000       0.00095800       0.00100000       0.00020200
V       -0.00002000       3.67817000       6.35970000       0.00174800      -0.00174900       0.00067700
V       -0.85220000       2.45703000       8.50189000      -0.00016400      -0.00037800       0.00078200
V       -2.56819000       3.67045000      10.60350000       0.00043100      -0.00083500      -0.00001300
V        0.87924000       8.57100000       2.11097000      -0.00180100       0.00042700       0.00250400
V       -0.03150000       7.30789000       4.17369000      -0.00448700       0.00286700       0.00336300
V       -0.84979000       6.12958000       6.34692000      -0.00007100       0.00087800      -0.00108000
V       -1.71767000       4.90979000       8.48105000       0.00105500       0.00102900       0.00026300
V        3.44964000      12.23174000      -0.00529000      -0.00047400      -0.00321600      -0.00043200
V        6.96697000      -1.22302000       2.12115000      -0.00206800      -0.00207600       0.00131300
V        1.73438000       9.79134000       4.10139000       0.00093900      -0.00027400      -0.00011700
V        4.43193000      -4.95114000       8.59964000      -0.00169400       0.00112000      -0.00201100
V        6.95951000       2.43114000       0.04875000      -0.00048800      -0.00168400       0.00040700
V        6.06638000       1.23479000       2.12363000      -0.00055800      -0.00068000       0.00119600
V        5.23753000       0.02296000       4.20947000       0.00114300       0.00101900       0.00014400
V        4.12164000      -1.12058000       6.13470000      -0.00146000       0.00170100      -0.00221800
V        6.07936000       4.89109000       0.00666000      -0.00127600      -0.00189700      -0.00072900
V        5.19934000       3.69429000       2.11320000       0.00059700       0.00213900       0.00196400
V        4.36001000       2.50783000       4.23476000       0.00189300       0.00088000       0.00103700
V        3.46038000       1.27963000       6.38574000       0.00110800       0.00128700       0.00041500
V        2.50231000       0.07180000       8.50421000       0.00008300       0.00033900       0.00086500
V        5.20457000       7.35888000       0.02228000       0.00054200      -0.00011000       0.00330000
V        4.34320000       6.13412000       2.12747000      -0.00021200       0.00004100      -0.00028900
V        3.46657000       4.91938000       4.23501000       0.00283700       0.00067000      -0.00084700
V        2.60482000       3.68260000       6.36293000       0.00054900      -0.00122000       0.00000800
V        1.74438000       2.46992000       8.51663000      -0.00040300      -0.00308800      -0.00038300
V        4.34287000       9.80557000       0.00757000      -0.00005600      -0.00118000       0.00057800
V        3.48873000       8.57219000       2.12365000       0.00275500      -0.00165000       0.00037800
V        2.60404000       7.34840000       4.26263000      -0.00188200      -0.00136300      -0.00000700
V        1.77194000       6.09940000       6.40133000      -0.00060100      -0.00164200       0.00055400
V        0.87116000       4.87877000       8.49584000      -0.00197600      -0.00212800       0.00154400
V        6.11445000      -6.08097000      10.62533000      -0.00065500      -0.00264300       0.00111100
V        9.56748000      -1.22888000       2.15207000       0.00359500      -0.00005000      -0.00015400
V        8.71314000      -2.44744000       4.28015000       0.00277600      -0.00080200       0.00051300
V        7.90455000      -3.72919000       6.48653000      -0.00212300      -0.00249100       0.00007700
V        8.72961000       1.25437000       2.08424000      -0.00115000      -0.00021800      -0.00070900
V        7.87173000       0.02546000       4.20808000       0.00169400       0.00129700      -0.00107600
V        8.74702000       4.85172000       0.11160000      -0.00164900      -0.00266000      -0.00047000
V        7.80495000       3.68986000       2.15711000      -0.00327300      -0.00200800      -0.00008300
V        6.97356000       2.47206000       4.24407000      -0.00133700      -0.00003400       0.00174900
V        6.09617000       1.35056000       6.32012000      -0.00074200      -0.00229100       0.00069000
V        7.81916000       7.36108000       0.03160000       0.00099500       0.00047600       0.00280800
V        6.94778000       6.14317000       2.11685000       0.00129700      -0.00105500       0.00304100
V        6.06995000       4.90255000       4.24843000       0.00140800      -0.00055600       0.00151300
V        5.22187000       3.71067000       6.38923000       0.00103300      -0.00148900      -0.00110800
V        4.33856000       2.52375000       8.53480000       0.00044900       0.00245900       0.00081000
V        6.94086000       9.80496000       0.02552000       0.00106800       0.00179000       0.00319400
V        6.10698000       8.58746000       2.15148000       0.00483400       0.00016900       0.00391600
V        5.20683000       7.37420000       4.24887000       0.00233800      -0.00168300       0.00177300
V        4.36875000       6.11966000       6.36495000      -0.00213700      -0.00265100      -0.00162200
V        3.46962000       4.97384000       8.52581000      -0.00095600      -0.00026700      -0.00076000
Cr      -0.82412000       2.42826000       0.04839000      -0.00062100       0.00014100      -0.00045700
Cr      -4.21345000      -2.47441000       8.54455000      -0.00095000      -0.00090700       0.00129600
Cr      -1.67167000       4.90492000       0.08866000       0.00035000      -0.00177100      -0.00026100
Cr       2.67229000       7.27202000       8.54353000      -0.00334200      -0.00437200       0.00087700
Cr       9.56153000       2.40046000       0.10680000      -0.00236900      -0.00499400      -0.00022400
Ti       5.19177000      -3.63630000       6.34311000       0.00150200       0.00373400      -0.00029700
Ti       3.46246000      -2.41348000       8.46088000       0.00200800       0.00339600      -0.00097700
Ti       6.92249000      -1.21812000       6.35400000       0.00133000      -0.00203600      -0.00066400
Ti       6.25841000      -2.58055000       8.72242000      -0.00066300      -0.00186100       0.00045200
Ti       5.18832000       0.00820000       8.47768000      -0.00102300      -0.00035400       0.00232900
