124
Lattice="13.002903728225448 -0.009255746979815498 0.02985436048510635 -4.3430024538978165 12.242781786512072 -0.02221962293537814 -4.3055893186509335 -6.127411939181864 10.626069933025846" Properties=species:S:1:pos:R:3:forces:R:3 energy=-1108.3318771818085 free_energy=-1108.3318771818085 stress="0.0050518569140121025 0.0004046152139771149 3.199552408165983e-05 0.0004046152139771149 0.004964262058952339 0.00019462297589578585 3.199552408165983e-05 0.00019462297589578585 0.005904951164185788" pbc="T T T"
V        0.15208683       0.04169353       0.04451925       0.00260720       0.00242233      -0.00034443
V       -0.83473098      -1.20725921       2.10517951      -0.00027212       0.00137647      -0.00119320
V       11.28751556      -2.44722420       4.27189236      -0.00190052      -0.00096876      -0.00003631
V       -6.88881808       8.56633392       6.35699245       0.00035708       0.00041503       0.00259099
V       -3.51259427      -4.83378186       8.48996226      -0.00422406       0.00290978      -0.00280775
V       -1.66270728       1.22661275       2.09405342      -0.00021530       0.00076690       0.00011020
V       -2.56637819       0.01855317       4.23338690       0.00056719       0.00004490       0.00028417
V       -3.40426527      -1.23506496       6.40959561       0.00043668       0.00078665      -0.00148100
V       -2.55732581       3.66323000       2.08045463      -0.00116985       0.00087327       0.00093880
V       -3.43118910       2.46331982       4.23300679      -0.00157892      -0.00024219       0.00109348
V       -4.30121609       1.21326928       6.38041872       0.00001768       0.00084272      -0.00028543
V       -5.10198035      -0.05454382       8.60302707      -0.00063319       0.00049163      -0.00136347
V       -2.54827624       7.35020435       0.02957371      -0.00152543      -0.00118524      -0.00045318
V       -3.47096865       6.14214137       2.14219516      -0.00046706      -0.00010835      -0.00016596
V       -4.31313002       4.90476872       4.25532663       0.00073393      -0.00044183      -0.00039183
V       -5.18129307       3.69424783       6.38309644      -0.00058790       0.00017908       0.00116172
V       -6.03571894       2.48087506       8.52445093       0.00024871       0.00148529       0.00087782
V       -3.51930681       9.74821108      -0.01817620       0.00018387      -0.00308931       0.00006375
V        8.67485724       8.58972738       2.14398937      -0.00028126       0.00065242       0.00038641
V        7.80771308       7.33575245       4.27353233      -0.00033553      -0.00143109       0.00017055
V       -6.04945633       6.13177916       6.41689338       0.00068482      -0.00055232       0.00078417
V       -6.84722163       4.99371872       8.63758635      -0.00203128      -0.00105580      -0.00301057
V        1.78906567      -1.14791399       1.98251448      -0.00163606      -0.00355659       0.00312762
V       -3.48324774       9.79853738       4.19898625      -0.00198584      -0.00196799       0.00174459
V       -0.01423954      -3.69395224       6.40550897       0.00373647       0.00078573      -0.00102050
V       -0.89709067      -4.98046843       8.66295041       0.00025771       0.00212025      -0.00275316
V        1.76434975       2.31347276       0.04675551      -0.00135993      -0.00345407      -0.00032028
V        0.85379500       1.25311651       2.20575638      -0.00228256       0.00161340       0.00180070
V        0.01219894      -0.00479768       4.24025032       0.00011086      -0.00135823      -0.00185035
V       -0.84617682      -1.21615113       6.36933706      -0.00068059       0.00045895       0.00072108
V       -1.78157327      -2.48344858       8.55090906      -0.00006503       0.00095416      -0.00082784
V        0.85234738       4.85775815      -0.00008851      -0.00142016       0.00164124      -0.00015241
V        0.04098732       3.63212914       2.09555862      -0.00073747      -0.00004877       0.00002938
V       -0.86330811       2.46749966       4.25463081      -0.00032184       0.00018057      -0.00141541
V       -1.72089612       1.23950910       6.36917036       0.00061493      -0.00004962       0.00021694
V       -2.55900183       0.02270156       8.51495083      -0.00085918      -0.00095045      -0.00132608
V        0.01848500       7.37982634       0.00181595       0.00145289      -0.00351939      -0.00080722
V       -0.87003657       6.06686173       2.05887829       0.00022851       0.00232673       0.00109208
V       -1.71529406       4.88803860       4.23421890      -0.00026655       0.00163857       0.00102947
V       -2.56551502       3.67073218       6.35848983       0.00023386      -0.00011260      -0.00224456
V       -3.45182049       2.44472441       8.51658746       0.00011345      -0.00065055       0.00116087
V       -5.21447238       3.81475387      10.60061022       0.00389647      -0.00802034      -0.00010401
V       -1.73480546       8.61500905       2.09046767      -0.00009975      -0.00231912      -0.00171048
V       -2.60068896       7.33342499       4.22870369       0.00022704      -0.00051880       0.00268760
V       -3.46001007       6.12695771       6.38503017      -0.00034228       0.00056149       0.00118514
V       -4.24557014       4.85866362       8.43420101       0.00212810      -0.00149986      -0.00216630
V        0.76338214      -6.12142134      10.62535485       0.00905036      -0.00098055      -0.00004968
V        0.05752690      10.99066383       2.13664513       0.00224134      -0.00145153       0.00072641
V       -0.90049914       9.78697768       4.17718095      -0.00057038       0.00008209      -0.00151724
V       -1.85336161       8.52225899       6.29981196       0.00406234       0.00136298      -0.00125350
V        1.74542178      -4.90554845       8.54990705      -0.00134255      -0.00073928       0.00098281
V        4.38047343       2.52857168       0.00781090       0.00309205       0.00079022       0.00023490
V        3.43352781       1.17345002       1.98695077       0.00299448       0.00289388       0.00326679
V        2.59677185       0.02317038       4.18928579      -0.00008651       0.00012725      -0.00181281
V        1.68802773      -1.21869183       6.37312931       0.00117488       0.00098810      -0.00039076
V        0.80007960      -2.48501082       8.51958424      -0.00113504       0.00070476       0.00038621
V        3.44407677       4.89355777       0.02324994      -0.00046333      -0.00111823      -0.00035777
V        2.61372373       3.66312504       2.10860541      -0.00134733      -0.00014290      -0.00115541
V        1.76142868       2.46622194       4.24227162       0.00121382       0.00038934      -0.00185768
V        0.85368247       1.25494463       6.38036634       0.00024062      -0.00018605      -0.00128956
V       -0.00409886       0.00261697       8.52768317       0.00137334       0.00064422      -0.00012353
V        2.60344075       7.34560512       0.00889948       0.00223377       0.00089580      -0.00019062
V        1.74413940       6.10896586       2.11652723       0.00073691       0.00233706       0.00154773
V        0.88009319       4.88736675       4.23596890       0.00009332      -0.00050520       0.00021373
V        0.01019668       3.68530228       6.37012075       0.00022560      -0.00062518       0.00020520
V       -0.85782544       2.46532158       8.51636710       0.00151369      -0.00112925      -0.00135752
V       -2.57988997       3.68373871      10.60851061       0.00263153      -0.00187380       0.00016272
V        0.87430341       8.55057180       2.08169266       0.00037366       0.00096478      -0.00085977
V        0.00299630       7.28495796       4.18693945       0.00106633       0.00164575       0.00141235
V       -0.82472954       6.12524310       6.38332173      -0.00080094      -0.00029166      -0.00040292
V       -1.70231470       4.91564075       8.51744586       0.00065074       0.00002972       0.00111560
V        3.45171390      12.22898998       0.00461060       0.00382868      -0.00015908      -0.00083574
V        6.97690098      -1.20851912       2.10578961      -0.00068997      -0.00061280      -0.00077649
V        1.77282747       9.78086914       4.11274079      -0.00036639       0.00021007       0.00357746
V        4.44834876      -4.94085940       8.62939768      -0.00067586       0.00033700      -0.00141244
V        6.96634756       2.41336157       0.05695387       0.00072261       0.00180915      -0.00038940
V        6.04646296       1.22807260       2.11693134       0.00240489       0.00097704      -0.00155107
V        5.21987406       0.05297679       4.20167923      -0.00012990       0.00060308      -0.00141746
V        4.17346867      -1.08781432       6.16507766       0.00045701      -0.00027881      -0.00050071
V        6.09458573       4.90275914       0.02322206      -0.00180386       0.00311757       0.00097352
V        5.19621178       3.67623660       2.14139543      -0.00059948       0.00004392       0.00050643
V        4.34688220       2.48202227       4.22490869       0.00119878       0.00262938       0.00177824
V        3.46745739       1.29490936       6.37562558      -0.00058428      -0.00135329      -0.00044345
V        2.49661119       0.09733192       8.52799778       0.00255531      -0.00181682      -0.00154720
V        5.20194990       7.35553052       0.03320515       0.00031276      -0.00033223       0.00047875
V        4.34843259       6.12187790       2.13789289       0.00003705       0.00101559       0.00008654
V        3.48227448       4.90490205       4.24583171       0.00020501       0.00209961      -0.00013362
V        2.61956399       3.68024247       6.37208867      -0.00073323       0.00044196       0.00063329
V        1.75115074       2.48254375       8.52976965      -0.00026352      -0.00156996      -0.00017681
V        4.34523523       9.80568455       0.01058828      -0.00020780      -0.00253581      -0.00022676
V        3.49023852       8.56579545       2.12978738       0.00035864      -0.00028107       0.00278386
V        2.60935501       7.33321241       4.27592192       0.00044237       0.00105798       0.00159697
V        1.78486087       6.09506942       6.41313517      -0.00076417      -0.00071451      -0.00152851
V        0.88057436       4.88213988       8.51715000       0.00050629       0.00107061      -0.00132341
V       10.45214814       0.04260572       0.02642650      -0.00205288       0.00073338      -0.00011322
V        9.57082735      -1.21377680       2.14235629      -0.00194755      -0.00148391       0.00158279
V        8.70456592      -2.43497898       4.29987788      -0.00077512      -0.00085652       0.00167668
V        7.88917337      -3.71496004       6.48644389      -0.00101604       0.00068722       0.00008917
V        8.73921785       1.26323467       2.08592715      -0.00208495      -0.00101253       0.00112432
V        7.88299931       0.03574436       4.21227609      -0.00107843      -0.00153587       0.00148943
V        8.75190713       4.84705075       0.10852883       0.00034418      -0.00016249      -0.00276078
V        7.80073555       3.68796009       2.17076700       0.00004255       0.00048316      -0.00011604
V        6.96853999       2.47250646       4.25568732       0.00067241       0.00000116       0.00274357
V        6.09697420       1.37487182       6.32540985       0.00013882      -0.00423463      -0.00131246
V        7.81460784       7.33253120       0.02508772      -0.00357350       0.00078752       0.00093036
V        6.94915665       6.12313624       2.14817301       0.00033206      -0.00014025       0.00131928
V        6.09217446       4.91284666       4.27159566       0.00129770       0.00081579       0.00020844
V        5.23604791       3.72317832       6.40973013       0.00052261      -0.00378083      -0.00109742
V        4.36720593       2.55528247       8.52362068      -0.00111483       0.00087791       0.00027950
V        6.93928920       9.83164706       0.02693269       0.00080888       0.00082735      -0.00038129
V        6.08374799       8.57231622       2.14000179      -0.00098127      -0.00036121       0.00010988
V        5.20843898       7.35402630       4.27076209       0.00040117      -0.00026967       0.00336655
V        4.37542237       6.10136745       6.38429673      -0.00042102      -0.00052401       0.00252185
V        3.50431425       4.98600807       8.55488104      -0.00116820      -0.00032180      -0.00096782
Cr      -0.80412903       2.42296312       0.03816270      -0.00240871       0.00165753       0.00012631
Cr      -4.21562718      -2.47317113       8.57715516      -0.00217221       0.00059410      -0.00009552
Cr      -1.67141981       4.90231774       0.08220131      -0.00185884       0.00042156      -0.00013389
Cr       2.68381333       7.27393669       8.58220685      -0.00141112       0.00175803      -0.00015345
Cr       9.56856750       2.40362367       0.11071896      -0.00102281       0.00155805      -0.00009988
Ti       5.19521392      -3.64539048       6.37375619      -0.00054228       0.00128856       0.00021906
Ti       3.46350402      -2.42873956       8.48166941       0.00052080       0.00174033      -0.00120401
Ti       6.92731574      -1.19902380       6.37492989      -0.00134825      -0.00003717       0.00022088
Ti       6.24674274      -2.55313890       8.72295802      -0.00365153       0.00248687      -0.00119647
Ti       5.20262441       0.02840468       8.48353384      -0.00144309      -0.00099488      -0.00118928
