 vasp.6.4.2 20Jul23 (build Sep 20 2024 16:56:05) complex                         
 executed on              LinuxNV date 2025.04.25  14:25:04
 running    4 mpi-ranks, with    8 threads/rank, on    1 nodes
 distrk:  each k-point on    4 cores,    1 groups
 distr:  one band on NCORE=   1 cores,    4 groups
 OpenACC runtime initialized ...    4 GPUs detected


--------------------------------------------------------------------------------------------------------


 INCAR:
   ENCUT = 520.000000
   POTIM = 0.200000
   SIGMA = 0.200000
   EDIFF = 1.00e-06
   EDIFFG = -1.00e-02
   ALGO = Normal
   GGA = PE
   PREC = Accurate
   IBRION = 2
   ISIF = 2
   ISMEAR = 1
   LORBIT = 11
   NELM = 100
   NSW = -1
   LCHARG = .TRUE.
   LWAVE = .FALSE.
   LREAL = .FALSE.

 POTCAR:    PAW_PBE Cr_pv 02Aug2007               
 POTCAR:    PAW_PBE Ti_pv 07Sep2000               
 POTCAR:    PAW_PBE V_pv 07Sep2000                
 POTCAR:    PAW_PBE W_sv 04Sep2015                
 POTCAR:    PAW_PBE Zr_sv 04Jan2005               
 POTCAR:    PAW_PBE Cr_pv 02Aug2007               
   SHA256 =  c9a7df34d3cdbacf1090e328ef39c0b420964e11c23f63548d1ac9dd218cdba0 Cr_pv/POTCAR          
   COPYR  = (c) Copyright 02Aug2007 Georg Kresse                                                    
   COPYR  = This file is part of the software VASP. Any use, copying, and all other rights are regul
   COPYR  = If you do not have a valid VASP license, you may not use, copy or distribute this file. 
   VRHFIN =Cr : p6d5s1                                                                              
   LEXCH  = PE                                                                                      
   EATOM  =  1647.9177 eV,  121.1185 Ry                                                             
                                                                                                    
   TITEL  = PAW_PBE Cr_pv 02Aug2007                                                                 
   LULTRA =        F    use ultrasoft PP ?                                                          
   IUNSCR =        1    unscreen: 0-lin 1-nonlin 2-no                                               
   RPACOR =    2.080    partial core radius                                                         
   POMASS =   51.996; ZVAL   =   12.000    mass and valenz                                          
   RCORE  =    2.300    outmost cutoff radius                                                       
   RWIGS  =    2.500; RWIGS  =    1.323    wigner-seitz radius (au A)                               
   ENMAX  =  265.681; ENMIN  =  199.261 eV                                                          
   ICORE  =        3    local potential                                                             
   LCOR   =        T    correct aug charges                                                         
   LPAW   =        T    paw PP                                                                      
   EAUG   =  519.424                                                                                
   DEXC   =    0.000                                                                                
   RMAX   =    2.356    core radius for proj-oper                                                   
   RAUG   =    1.300    factor for augmentation sphere                                              
   RDEP   =    2.447    radius for radial grids                                                     
   RDEPT  =    1.882    core radius for aug-charge                                                  
                                                                                                    
   Atomic configuration                                                                             
    8 entries                                                                                       
     n  l   j            E        occ.                                                              
     1  0  0.50     -5880.4963   2.0000                                                             
     2  0  0.50      -667.0865   2.0000                                                             
     2  1  1.50      -560.6250   6.0000                                                             
     3  0  0.50       -73.9860   2.0000                                                             
     3  1  1.50       -45.4378   6.0000                                                             
     3  2  2.50        -2.9137   5.0000                                                             
     4  0  0.50        -4.0071   1.0000                                                             
     4  3  2.50        -1.3606   0.0000                                                             
   Description                                                                                      
     l       E           TYP  RCUT    TYP  RCUT                                                     
     1    -45.4377911     23  2.000                                                                 
     1      1.3605826     23  2.000                                                                 
     2     -2.9136672     23  2.300                                                                 
     2     -4.2742498     23  2.300                                                                 
     0     -4.0071320     23  2.300                                                                 
     0      9.4498803     23  2.300                                                                 
     3      2.7211652     23  2.300                                                                 
  local pseudopotential read in
  partial core-charges read in
  partial kinetic energy density read in
  atomic valenz-charges read in
  non local Contribution for L=            1  read in
    real space projection operators read in
  non local Contribution for L=            1  read in
    real space projection operators read in
  non local Contribution for L=            2  read in
    real space projection operators read in
  non local Contribution for L=            2  read in
    real space projection operators read in
  non local Contribution for L=            0  read in
    real space projection operators read in
  non local Contribution for L=            0  read in
    real space projection operators read in
    PAW grid and wavefunctions read in
 
   number of l-projection  operators is LMAX  =            6
   number of lm-projection operators is LMMAX =           18
 
 POTCAR:    PAW_PBE Ti_pv 07Sep2000               
   SHA256 =  f757a1b2c6d082f4c628fa3d987464a8763bf92e53844ac0500b0e2ddc9ce5c0 Ti_pv/POTCAR          
   COPYR  = (c) Copyright 07Sep2000 Georg Kresse                                                    
   COPYR  = This file is part of the software VASP. Any use, copying, and all other rights are regul
   COPYR  = If you do not have a valid VASP license, you may not use, copy or distribute this file. 
   VRHFIN =Ti: d3 s1                                                                                
   LEXCH  = PE                                                                                      
   EATOM  =  1042.5995 eV,   76.6289 Ry                                                             
                                                                                                    
   TITEL  = PAW_PBE Ti_pv 07Sep2000                                                                 
   LULTRA =        F    use ultrasoft PP ?                                                          
   IUNSCR =        1    unscreen: 0-lin 1-nonlin 2-no                                               
   RPACOR =    2.200    partial core radius                                                         
   POMASS =   47.880; ZVAL   =   10.000    mass and valenz                                          
   RCORE  =    2.500    outmost cutoff radius                                                       
   RWIGS  =    2.500; RWIGS  =    1.323    wigner-seitz radius (au A)                               
   ENMAX  =  222.335; ENMIN  =  166.751 eV                                                          
   RCLOC  =    1.701    cutoff for local pot                                                        
   LCOR   =        T    correct aug charges                                                         
   LPAW   =        T    paw PP                                                                      
   EAUG   =  482.848                                                                                
   DEXC   =    0.000                                                                                
   RMAX   =    2.564    core radius for proj-oper                                                   
   RAUG   =    1.300    factor for augmentation sphere                                              
   RDEP   =    2.538    radius for radial grids                                                     
   RDEPT  =    1.952    core radius for aug-charge                                                  
                                                                                                    
   Atomic configuration                                                                             
    8 entries                                                                                       
     n  l   j            E        occ.                                                              
     1  0  0.50     -4865.3608   2.0000                                                             
     2  0  0.50      -533.1368   2.0000                                                             
     2  1  1.50      -440.5031   6.0000                                                             
     3  0  0.50       -59.3186   2.0000                                                             
     3  1  1.50       -35.7012   6.0000                                                             
     3  2  2.50        -1.9157   3.0000                                                             
     4  0  0.50        -3.7291   1.0000                                                             
     4  3  2.50        -1.3606   0.0000                                                             
   Description                                                                                      
     l       E           TYP  RCUT    TYP  RCUT                                                     
     1    -35.7012140     23  2.300                                                                 
     1     -1.3605826     23  2.300                                                                 
     2     -1.9156996     23  2.500                                                                 
     2     -0.4063033     23  2.500                                                                 
     0     -3.7290856     23  2.500                                                                 
     0     20.4087390     23  2.500                                                                 
  local pseudopotential read in
  partial core-charges read in
  partial kinetic energy density read in
  atomic valenz-charges read in
  non local Contribution for L=            1  read in
    real space projection operators read in
  non local Contribution for L=            1  read in
    real space projection operators read in
  non local Contribution for L=            2  read in
    real space projection operators read in
  non local Contribution for L=            2  read in
    real space projection operators read in
  non local Contribution for L=            0  read in
    real space projection operators read in
  non local Contribution for L=            0  read in
    real space projection operators read in
    PAW grid and wavefunctions read in
 
   number of l-projection  operators is LMAX  =            6
   number of lm-projection operators is LMMAX =           18
 
 POTCAR:    PAW_PBE V_pv 07Sep2000                
   SHA256 =  1175d3c8cb4ffd1d150a520fa74fae5c3ec72c0849b5615a94a5372dd2cf07f7 V_pv/POTCAR           
   COPYR  = (c) Copyright 07Sep2000 Georg Kresse                                                    
   COPYR  = This file is part of the software VASP. Any use, copying, and all other rights are regul
   COPYR  = If you do not have a valid VASP license, you may not use, copy or distribute this file. 
   VRHFIN =V: p6 d4 s1                                                                              
   LEXCH  = PE                                                                                      
   EATOM  =  1321.6206 eV,   97.1364 Ry                                                             
                                                                                                    
   TITEL  = PAW_PBE V_pv 07Sep2000                                                                  
   LULTRA =        F    use ultrasoft PP ?                                                          
   IUNSCR =        1    unscreen: 0-lin 1-nonlin 2-no                                               
   RPACOR =    1.700    partial core radius                                                         
   POMASS =   50.941; ZVAL   =   11.000    mass and valenz                                          
   RCORE  =    2.300    outmost cutoff radius                                                       
   RWIGS  =    2.300; RWIGS  =    1.217    wigner-seitz radius (au A)                               
   ENMAX  =  263.673; ENMIN  =  197.755 eV                                                          
   RCLOC  =    1.779    cutoff for local pot                                                        
   LCOR   =        T    correct aug charges                                                         
   LPAW   =        T    paw PP                                                                      
   EAUG   =  598.473                                                                                
   DEXC   =    0.000                                                                                
   RMAX   =    2.359    core radius for proj-oper                                                   
   RAUG   =    1.300    factor for augmentation sphere                                              
   RDEP   =    2.430    radius for radial grids                                                     
   RDEPT  =    1.700    core radius for aug-charge                                                  
                                                                                                    
   Atomic configuration                                                                             
    8 entries                                                                                       
     n  l   j            E        occ.                                                              
     1  0  0.50     -5360.7193   2.0000                                                             
     2  0  0.50      -598.4546   2.0000                                                             
     2  1  1.50      -499.0155   6.0000                                                             
     3  0  0.50       -66.5711   2.0000                                                             
     3  1  1.50       -40.5282   6.0000                                                             
     3  2  2.50        -2.4291   4.0000                                                             
     4  0  0.50        -3.8743   1.0000                                                             
     4  3  2.50        -1.3606   0.0000                                                             
   Description                                                                                      
     l       E           TYP  RCUT    TYP  RCUT                                                     
     1    -40.5282431     23  2.000                                                                 
     1      5.4423304     23  2.000                                                                 
     2     -2.4290905     23  2.300                                                                 
     2     -1.0472488     23  2.300                                                                 
     0     -3.8742754     23  2.300                                                                 
     0     27.2116520     23  2.300                                                                 
  local pseudopotential read in
  partial core-charges read in
  partial kinetic energy density read in
  atomic valenz-charges read in
  non local Contribution for L=            1  read in
    real space projection operators read in
  non local Contribution for L=            1  read in
    real space projection operators read in
  non local Contribution for L=            2  read in
    real space projection operators read in
  non local Contribution for L=            2  read in
    real space projection operators read in
  non local Contribution for L=            0  read in
    real space projection operators read in
  non local Contribution for L=            0  read in
    real space projection operators read in
    PAW grid and wavefunctions read in
 
   number of l-projection  operators is LMAX  =            6
   number of lm-projection operators is LMMAX =           18
 
 POTCAR:    PAW_PBE W_sv 04Sep2015                
   SHA256 =  931c2d770f65867ef30f3db3421922900fc0890ebac5c3e12f63b6a2064023d7 W_sv/POTCAR           
   COPYR  = (c) Copyright 04Sep2015 Georg Kresse                                                    
   COPYR  = This file is part of the software VASP. Any use, copying, and all other rights are regul
   COPYR  = If you do not have a valid VASP license, you may not use, copy or distribute this file. 
   VRHFIN =W : 5p6s5d                                                                               
   LEXCH  = PE                                                                                      
   EATOM  =  1865.5791 eV,  137.1162 Ry                                                             
                                                                                                    
   TITEL  = PAW_PBE W_sv 04Sep2015                                                                  
   LULTRA =        F    use ultrasoft PP ?                                                          
   IUNSCR =        1    unscreen: 0-lin 1-nonlin 2-no                                               
   RPACOR =    2.330    partial core radius                                                         
   POMASS =  183.850; ZVAL   =   14.000    mass and valenz                                          
   RCORE  =    2.500    outmost cutoff radius                                                       
   RWIGS  =    2.750; RWIGS  =    1.455    wigner-seitz radius (au A)                               
   ENMAX  =  223.057; ENMIN  =  167.293 eV                                                          
   ICORE  =        3    local potential                                                             
   LCOR   =        T    correct aug charges                                                         
   LPAW   =        T    paw PP                                                                      
   EAUG   =  373.438                                                                                
   DEXC   =    0.000                                                                                
   RMAX   =    2.565    core radius for proj-oper                                                   
   RAUG   =    1.300    factor for augmentation sphere                                              
   RDEP   =    2.539    radius for radial grids                                                     
   RDEPT  =    2.126    core radius for aug-charge                                                  
                                                                                                    
   Atomic configuration                                                                             
   15 entries                                                                                       
     n  l   j            E        occ.                                                              
     1  0  0.50    -69465.5834   2.0000                                                             
     2  0  0.50    -11986.2640   2.0000                                                             
     2  1  1.50    -10479.8613   6.0000                                                             
     3  0  0.50     -2759.0756   2.0000                                                             
     3  1  1.50     -2313.1855   6.0000                                                             
     3  2  2.50     -1801.1183  10.0000                                                             
     4  0  0.50      -567.6789   2.0000                                                             
     4  1  1.50      -421.4692   6.0000                                                             
     4  2  2.50      -236.3471  10.0000                                                             
     4  3  3.50       -31.2665  14.0000                                                             
     5  0  0.50       -77.1084   2.0000                                                             
     6  0  0.50        -5.1438   1.0000                                                             
     5  1  1.50       -41.3856   6.0000                                                             
     5  2  2.50        -3.3185   5.0000                                                             
     5  3  2.50        -1.3606   0.0000                                                             
   Description                                                                                      
     l       E           TYP  RCUT    TYP  RCUT                                                     
     0    -77.1084470     23  2.100                                                                 
     0     -5.1437956     23  2.300                                                                 
     1    -41.3855615     23  2.500                                                                 
     1     -2.7211652     23  2.500                                                                 
     2     -3.3185025     23  2.500                                                                 
     2     -1.5965151     23  2.500                                                                 
     3     -1.3605826     23  2.500                                                                 
  local pseudopotential read in
  partial core-charges read in
  partial kinetic energy density read in
  kinetic energy density of atom read in
  atomic valenz-charges read in
  non local Contribution for L=            0  read in
    real space projection operators read in
  non local Contribution for L=            0  read in
    real space projection operators read in
  non local Contribution for L=            1  read in
    real space projection operators read in
  non local Contribution for L=            1  read in
    real space projection operators read in
  non local Contribution for L=            2  read in
    real space projection operators read in
  non local Contribution for L=            2  read in
    real space projection operators read in
    PAW grid and wavefunctions read in
 
   number of l-projection  operators is LMAX  =            6
   number of lm-projection operators is LMMAX =           18
 
 POTCAR:    PAW_PBE Zr_sv 04Jan2005               
   SHA256 =  25aed69cb10325f9d37c5c68912b61a17387d1f8e4f1d804860ffa10c8a4bf76 Zr_sv/POTCAR          
   COPYR  = (c) Copyright 04Jan2005 Georg Kresse                                                    
   COPYR  = This file is part of the software VASP. Any use, copying, and all other rights are regul
   COPYR  = If you do not have a valid VASP license, you may not use, copy or distribute this file. 
   VRHFIN =Zr: 4s4p5s4d                                                                             
   LEXCH  = PE                                                                                      
   EATOM  =  1284.2219 eV,   94.3876 Ry                                                             
                                                                                                    
   TITEL  = PAW_PBE Zr_sv 04Jan2005                                                                 
   LULTRA =        F    use ultrasoft PP ?                                                          
   IUNSCR =        1    unscreen: 0-lin 1-nonlin 2-no                                               
   RPACOR =    2.200    partial core radius                                                         
   POMASS =   91.224; ZVAL   =   12.000    mass and valenz                                          
   RCORE  =    2.500    outmost cutoff radius                                                       
   RWIGS  =    3.070; RWIGS  =    1.625    wigner-seitz radius (au A)                               
   ENMAX  =  229.898; ENMIN  =  172.424 eV                                                          
   ICORE  =        3    local potential                                                             
   LCOR   =        T    correct aug charges                                                         
   LPAW   =        T    paw PP                                                                      
   EAUG   =  461.257                                                                                
   DEXC   =    0.000                                                                                
   RMAX   =    2.561    core radius for proj-oper                                                   
   RAUG   =    1.300    factor for augmentation sphere                                              
   RDEP   =    2.597    radius for radial grids                                                     
   RDEPT  =    2.007    core radius for aug-charge                                                  
                                                                                                    
   Atomic configuration                                                                             
   11 entries                                                                                       
     n  l   j            E        occ.                                                              
     1  0  0.50    -17820.0161   2.0000                                                             
     2  0  0.50     -2467.0882   2.0000                                                             
     2  1  1.50     -2199.6095   6.0000                                                             
     3  0  0.50      -402.4863   2.0000                                                             
     3  1  1.50      -315.3675   6.0000                                                             
     3  2  2.50      -172.4472  10.0000                                                             
     4  0  0.50       -52.4146   2.0000                                                             
     5  0  0.50        -3.8421   1.0000                                                             
     4  1  1.50       -30.5054   6.0000                                                             
     4  2  2.50        -2.3341   3.0000                                                             
     4  3  2.50        -1.3606   0.0000                                                             
   Description                                                                                      
     l       E           TYP  RCUT    TYP  RCUT                                                     
     0    -52.4145962     23  2.200                                                                 
     0     -3.8421270     23  2.500                                                                 
     1    -30.5053914     23  2.200                                                                 
     1     20.4087390     23  2.200                                                                 
     2     -2.3340816     23  2.500                                                                 
     2     -0.6120942     23  2.500                                                                 
     3     -4.0817478     23  2.500                                                                 
  local pseudopotential read in
  partial core-charges read in
  partial kinetic energy density read in
  atomic valenz-charges read in
  non local Contribution for L=            0  read in
    real space projection operators read in
  non local Contribution for L=            0  read in
    real space projection operators read in
  non local Contribution for L=            1  read in
    real space projection operators read in
  non local Contribution for L=            1  read in
    real space projection operators read in
  non local Contribution for L=            2  read in
    real space projection operators read in
  non local Contribution for L=            2  read in
    real space projection operators read in
    PAW grid and wavefunctions read in
 
   number of l-projection  operators is LMAX  =            6
   number of lm-projection operators is LMMAX =           18
 
 -----------------------------------------------------------------------------
|                                                                             |
|               ----> ADVICE to this user running VASP <----                  |
|                                                                             |
|     You have a (more or less) 'large supercell' and for larger cells it     |
|     might be more efficient to use real-space projection operators.         |
|     Therefore, try LREAL= Auto in the INCAR file.                           |
|     Mind: For very accurate calculation, you might also keep the            |
|     reciprocal projection scheme (i.e. LREAL=.FALSE.).                      |
|                                                                             |
 -----------------------------------------------------------------------------

  PAW_PBE Cr_pv 02Aug2007               :
 energy of atom  1       EATOM=-1647.9177
 kinetic energy error for atom=    0.0057 (will be added to EATOM!!)
  PAW_PBE Ti_pv 07Sep2000               :
 energy of atom  2       EATOM=-1042.5995
 kinetic energy error for atom=    0.0019 (will be added to EATOM!!)
  PAW_PBE V_pv 07Sep2000                :
 energy of atom  3       EATOM=-1321.6206
 kinetic energy error for atom=    0.0054 (will be added to EATOM!!)
  PAW_PBE W_sv 04Sep2015                :
 energy of atom  4       EATOM=-1865.5791
 kinetic energy error for atom=    0.0026 (will be added to EATOM!!)
  PAW_PBE Zr_sv 04Jan2005               :
 energy of atom  5       EATOM=-1284.2219
 kinetic energy error for atom=    0.0043 (will be added to EATOM!!)
 
 
 POSCAR: Cr Ti V  W  Zr
  positions in cartesian coordinates
  No initial velocities read in
 exchange correlation table for  LEXCH =        8
   RHO(1)=    0.500       N(1)  =     2000
   RHO(2)=  100.500       N(2)  =     4000
 


--------------------------------------------------------------------------------------------------------


 ion  position               nearest neighbor table
   1  0.996  0.998  0.195- 118 2.49  22 2.52 103 2.53  17 2.54  35 2.55  40 2.56  18 2.61  45 2.63
                            23 2.94  41 3.00  34 3.00 119 3.02  44 3.03
   2  0.392  0.196  0.195-  39 2.51  66 2.56  63 2.57  44 2.57  71 2.59  67 2.59  14 2.64   3 2.65
                            62 2.97  43 2.98  40 3.02  12 3.04  13 3.07
   3  0.594  0.195  0.193-  62 2.50 111 2.54  87 2.54  84 2.57  13 2.60   2 2.65 107 2.69  12 2.69
                            83 2.94  63 3.01  66 3.02  14 3.13 124 3.17
   4  0.800  0.401  0.802- 109 2.48  88 2.49 112 2.51  31 2.53 108 2.60 117 2.61  92 2.62  30 2.63
                            33 2.99  16 3.01 113 3.02  91 3.02  89 3.04
   5  0.999  0.600  0.197-  31 2.63  32 2.64 114 2.67 109 2.68  59 2.68  54 2.68  35 2.69  27 2.71
                            58 2.95 110 2.97  36 2.98  55 2.98 113 3.01  26 3.03
   6  0.992  0.596  0.597- 116 2.65  32 2.66  29 2.68  33 2.69  37 2.69 111 2.71  61 2.73   8 2.82
                           115 2.96 112 3.00
   7  0.200  0.002  0.600-  46 2.64  60 2.64  19 2.67  41 2.67  69 2.67  64 2.67  36 2.69  42 2.70
                            37 2.98  68 2.98  59 2.98  47 3.01  65 3.04
   8  0.210  0.601  0.602-  82 2.66  60 2.67  51 2.67  55 2.69  28 2.69  56 2.71  10 2.80   6 2.82
                            50 2.96  81 2.99  78 3.02  29 3.04
   9  0.400  0.001  0.399-  41 2.66  58 2.67  80 2.67  64 2.69  63 2.71  67 2.73  85 2.75  88 2.75
                            12 2.88  79 3.00  59 3.00  68 3.04  86 3.04
  10  0.448  0.644  0.643-  96 2.54  81 2.64  78 2.66  97 2.73 101 2.74  82 2.78   8 2.80  73 2.81
                            77 2.84
  11  0.395  0.795  0.995-  56 2.60  82 2.63  84 2.65  75 2.68  79 2.70  62 2.70  57 2.71  98 2.73
                            78 2.96  61 2.98  63 3.02  53 3.03  99 3.03  83 3.03
  12  0.588  0.191  0.395-  63 2.62  67 2.67   3 2.69  14 2.70  85 2.75  88 2.75 124 2.81 112 2.82
                             9 2.88  84 3.02   2 3.04  16 3.17
  13  0.599  0.397  0.195-   3 2.60  66 2.63  90 2.65  94 2.69 110 2.70  71 2.70  14 2.70 115 2.71
                           111 2.80  87 2.93 114 3.00  70 3.00   2 3.07
  14  0.591  0.400  0.399-  72 2.62   2 2.64  95 2.68  91 2.69 111 2.69  12 2.70  13 2.70 116 2.73
                            96 2.87  67 2.95  71 2.96   3 3.13
  15  0.801  0.195  0.996- 107 2.58 108 2.58  21 2.66  27 2.68 123 2.70 109 2.73  87 2.73 102 2.74
                           110 2.99 106 3.00  26 3.02  22 3.03  89 3.03  83 3.05
  16  0.800  0.196  0.608- 108 2.51 105 2.63  30 2.66  88 2.67 112 2.76  24 2.76  85 2.76 124 2.77
                            86 2.92  25 2.97   4 3.01  12 3.17
  17  0.994  0.997  1.000-   1 2.54  21 2.57  34 2.58 102 2.61  20 2.62  39 2.63 122 2.64  44 2.64

  18  0.998  0.998  0.394- 104 2.54  23 2.56  41 2.58 119 2.59   1 2.61  36 2.65  46 2.69  19 2.70

  19  0.996  1.000  0.600-  24 2.51 105 2.54  37 2.57 120 2.61  47 2.63  20 2.65   7 2.67  18 2.70

  20  0.998  0.998  0.801- 106 2.53  38 2.57 121 2.59  43 2.60  42 2.61  25 2.62  17 2.62  19 2.65

  21  0.004  0.196  0.999-  43 2.50  17 2.57 106 2.59  25 2.59  22 2.62  49 2.62  26 2.64  15 2.66

  22  0.999  0.192  0.195-   1 2.52  23 2.57  44 2.58  27 2.61  21 2.62 107 2.63  50 2.71 102 2.81
                            15 3.03
  23  0.013  0.201  0.398-  45 2.43  18 2.56  22 2.57  51 2.59  28 2.65 103 2.71 124 2.72  24 2.73
                             1 2.94
  24  0.009  0.197  0.603-  19 2.51  46 2.53  52 2.59  25 2.62  29 2.66 104 2.69  23 2.73  16 2.76
                            47 2.92 124 3.08
  25  0.002  0.200  0.802-  21 2.59  48 2.60  47 2.60  20 2.62  24 2.62  30 2.62 108 2.66 105 2.67
                            16 2.97
  26  0.002  0.398  0.001-  30 2.54 108 2.60  48 2.60  54 2.61  27 2.62  21 2.64  31 2.65 109 2.68
                            15 3.02   5 3.03
  27  0.008  0.397  0.202-  28 2.52  55 2.53  49 2.54  22 2.61  26 2.62 110 2.64  15 2.68   5 2.71

  28  0.003  0.398  0.393-  27 2.52  50 2.57  32 2.61 107 2.64  23 2.65   8 2.69 111 2.78  29 2.88
                           124 2.95
  29  0.021  0.410  0.622-  56 2.33  30 2.58  51 2.59  24 2.66   6 2.68 124 2.69  52 2.86 112 2.87
                            28 2.88   8 3.04
  30  0.003  0.403  0.809-  26 2.54  53 2.55  29 2.58  25 2.62   4 2.63  33 2.63  16 2.66  52 2.66
                            31 2.91
  31  0.995  0.596  0.993-  33 2.50   4 2.53  58 2.62 113 2.63  53 2.63   5 2.63  34 2.64  26 2.65
                            30 2.91
  32  0.001  0.599  0.399-  36 2.60  55 2.60  28 2.61 115 2.62 110 2.62  60 2.62   5 2.64   6 2.66

  33  0.999  0.603  0.807-  31 2.50  57 2.55 112 2.56 117 2.60  56 2.61  30 2.63  38 2.63   6 2.69
                             4 2.99
  34  0.999  0.801  0.999- 118 2.53  57 2.53  40 2.57  38 2.58  17 2.58 117 2.60  35 2.61  31 2.64
                             1 3.00
  35  0.000  0.807  0.200-  41 2.53   1 2.55  58 2.60  34 2.61  36 2.61 119 2.61 113 2.64   5 2.69
                           118 2.86  40 2.92
  36  0.997  0.795  0.393- 114 2.59 120 2.59  59 2.60  32 2.60  35 2.61  18 2.65  37 2.67   7 2.69
                             5 2.98
  37  0.004  0.807  0.603-  19 2.57  42 2.57  60 2.57 115 2.62 121 2.63  38 2.66  36 2.67   6 2.69
                             7 2.98
  38  0.999  0.803  0.803- 116 2.56  20 2.57  34 2.58  39 2.62  33 2.63  61 2.65  37 2.66 122 2.72

  39  0.198  0.004  0.004-   2 2.51  43 2.58  40 2.58  42 2.61  38 2.62  57 2.62  17 2.63  62 2.67
                            63 2.89
  40  0.192  0.999  0.198-   1 2.56  41 2.56  34 2.57  39 2.58  44 2.60  67 2.61  63 2.64  58 2.66
                            35 2.92   2 3.02
  41  0.195  1.000  0.394-  35 2.53  40 2.56  18 2.58  45 2.59  59 2.59  68 2.65   9 2.66   7 2.67
                             1 3.00
  42  0.199  0.001  0.805-  66 2.53  37 2.57  61 2.57  39 2.61  20 2.61  47 2.61  65 2.63   7 2.70

  43  0.196  0.199  1.000-  21 2.50  66 2.56  48 2.57  39 2.58  44 2.59  20 2.60  71 2.61  47 2.63
                             2 2.98
  44  0.199  0.200  0.199-   2 2.57  49 2.58  22 2.58  43 2.59  40 2.60  45 2.61  72 2.63  17 2.64
                            67 2.90   1 3.03
  45  0.198  0.199  0.397-  23 2.43  67 2.52  41 2.59  44 2.61  50 2.61   1 2.63  46 2.63  73 2.72

  46  0.203  0.205  0.601-  51 2.47  24 2.53  68 2.59  74 2.60  45 2.63   7 2.64  47 2.66  18 2.69

  47  0.199  0.199  0.800-  52 2.56  25 2.60  70 2.61  42 2.61  19 2.63  43 2.63  69 2.63  46 2.66
                            24 2.92   7 3.01
  48  0.201  0.398  0.002-  43 2.57  76 2.59  52 2.60  25 2.60  70 2.60  26 2.60  49 2.61  53 2.63

  49  0.201  0.399  0.201-  27 2.54  71 2.55  44 2.58  54 2.60  50 2.60  48 2.61  21 2.62  77 2.64

  50  0.204  0.403  0.402-  72 2.49  28 2.57  49 2.60  45 2.61  55 2.65  51 2.67  22 2.71   8 2.96

  51  0.207  0.396  0.604-  46 2.47  73 2.56  78 2.57  29 2.59  23 2.59  52 2.65  50 2.67   8 2.67

  52  0.202  0.398  0.804-  47 2.56  75 2.59  24 2.59  48 2.60  74 2.63  56 2.63  51 2.65  30 2.66
                            29 2.86
  53  0.200  0.599  0.004-  54 2.55  30 2.55  79 2.58  48 2.63  31 2.63  56 2.63  75 2.66  57 2.68
                            11 3.03
  54  0.204  0.598  0.200-  55 2.55  53 2.55  80 2.58  76 2.59  49 2.60  26 2.61  58 2.64   5 2.68

  55  0.197  0.600  0.392-  27 2.53  54 2.55  81 2.59  32 2.60  77 2.64  59 2.64  50 2.65   8 2.69
                             5 2.98
  56  0.193  0.594  0.800-  29 2.33  11 2.60  33 2.61  53 2.63  52 2.63  78 2.64  61 2.70   8 2.71

  57  0.193  0.801  0.001-  63 2.52  34 2.53  33 2.55  58 2.59  39 2.62  61 2.64  53 2.68  11 2.71

  58  0.194  0.796  0.197-  57 2.59  35 2.60  31 2.62  59 2.62  79 2.63  54 2.64  40 2.66   9 2.67
                             5 2.95
  59  0.202  0.807  0.403-  41 2.59  36 2.60  58 2.62  55 2.64  64 2.66  80 2.67  60 2.68   5 2.68
                            81 2.90   7 2.98   9 3.00
  60  0.198  0.801  0.603-  37 2.57  61 2.60  65 2.60  81 2.61  32 2.62   7 2.64   8 2.67  59 2.68

  61  0.203  0.805  0.804-  42 2.57  62 2.59  60 2.60  57 2.64  38 2.65  56 2.70  82 2.72   6 2.73
                            11 2.98
  62  0.401  0.005  0.001-   3 2.50  63 2.54  66 2.56  61 2.59  65 2.59  83 2.61  39 2.67  11 2.70
                             2 2.97
  63  0.389  0.996  0.187-  57 2.52  62 2.54   2 2.57  12 2.62  40 2.64  79 2.69  84 2.69   9 2.71
                            39 2.89   3 3.01  11 3.02
  64  0.408  0.007  0.608-  89 2.51  81 2.54  68 2.59  65 2.61  86 2.62  59 2.66   7 2.67   9 2.69
                           123 3.01
  65  0.398  0.001  0.801-  82 2.59  62 2.59  87 2.60  60 2.60  64 2.61  69 2.63  42 2.63 123 2.70
                             7 3.04
  66  0.390  0.197  0.999-  42 2.53  43 2.56   2 2.56  62 2.56  70 2.59  69 2.63  13 2.63  87 2.68
                             3 3.02
  67  0.390  0.205  0.394-  45 2.52  72 2.57   2 2.59  40 2.61  12 2.67  91 2.68  68 2.69   9 2.73
                            44 2.90  14 2.95
  68  0.398  0.199  0.600-  46 2.59  88 2.59  64 2.59  73 2.63  92 2.64  41 2.65  69 2.66  67 2.69
                             7 2.98   9 3.04
  69  0.404  0.205  0.806-  90 2.52  74 2.57  89 2.60  65 2.63  47 2.63  66 2.63  68 2.66   7 2.67

  70  0.399  0.398  0.001-  75 2.55  66 2.59  48 2.60  47 2.61  94 2.62  74 2.62  90 2.64  71 2.66
                            13 3.00
  71  0.395  0.397  0.201-  49 2.55   2 2.59  43 2.61  76 2.61  72 2.61  70 2.66  95 2.66  13 2.70
                            14 2.96
  72  0.394  0.405  0.403-  50 2.49  77 2.56  67 2.57  96 2.61  71 2.61  14 2.62  44 2.63  73 2.63

  73  0.406  0.406  0.607-  91 2.53  51 2.56  74 2.60  72 2.63  97 2.63  68 2.63  45 2.72  10 2.81

  74  0.403  0.401  0.803-  78 2.54  69 2.57  92 2.59  93 2.60  46 2.60  73 2.60  70 2.62  52 2.63

  75  0.401  0.595  0.003-  70 2.55  76 2.56  78 2.56  52 2.59  99 2.60  93 2.60  53 2.66  11 2.68
                            94 2.91
  76  0.400  0.598  0.199-  75 2.56  54 2.59  48 2.59 100 2.59  94 2.60  71 2.61  79 2.63  77 2.63

  77  0.403  0.604  0.403-  80 2.55  72 2.56  95 2.58 101 2.62  76 2.63  55 2.64  49 2.64  10 2.84

  78  0.396  0.594  0.806-  74 2.54  75 2.56  98 2.56  51 2.57  56 2.64  10 2.66  97 2.69  82 2.76
                            11 2.96   8 3.02
  79  0.396  0.798  0.202-  85 2.51  80 2.56  53 2.58  76 2.63  58 2.63  99 2.68  63 2.69  11 2.70
                             9 3.00
  80  0.400  0.796  0.398-  81 2.54  77 2.55  79 2.56  54 2.58 100 2.62  86 2.63   9 2.67  59 2.67

  81  0.392  0.802  0.590-  80 2.54  64 2.54 123 2.57  55 2.59  60 2.61  10 2.64  82 2.71 101 2.74
                            59 2.90   8 2.99
  82  0.411  0.809  0.805-  83 2.52  65 2.59  11 2.63   8 2.66  81 2.71  61 2.72  78 2.76  10 2.78
                           123 2.80  98 2.90
  83  0.599  0.001  0.004-  84 2.52  82 2.52 107 2.53  62 2.61  87 2.62  98 2.62 102 2.64 123 2.68
                             3 2.94  11 3.03  15 3.05
  84  0.598  0.001  0.195-  83 2.52   3 2.57  85 2.63  99 2.63  11 2.65  63 2.69 103 2.71 124 2.79
                            12 3.02
  85  0.599  0.982  0.389- 100 2.46  79 2.51 104 2.61  84 2.63  86 2.67   9 2.75  12 2.75  16 2.76
                            99 2.84 124 3.23
  86  0.601  0.999  0.598- 101 2.60  64 2.62  80 2.63 108 2.64 105 2.64 123 2.66  85 2.67  88 2.68
                            16 2.92   9 3.04
  87  0.596  0.199  0.001-   3 2.54  65 2.60  83 2.62 110 2.62  89 2.63  90 2.66  66 2.68  15 2.73
                            13 2.93 123 3.20
  88  0.604  0.211  0.616-   4 2.49  89 2.52  91 2.56  68 2.59  16 2.67  86 2.68   9 2.75  12 2.75
                            92 2.87
  89  0.599  0.200  0.802-  64 2.51  88 2.52 109 2.53  69 2.60  87 2.63 108 2.64  92 2.64 123 2.77
                            15 3.03   4 3.04
  90  0.599  0.402  0.995-  69 2.52  92 2.54 114 2.59  93 2.59 109 2.60  70 2.64  13 2.65  87 2.66

  91  0.596  0.401  0.606-  73 2.53  92 2.54  88 2.56  96 2.57 112 2.60 117 2.61  67 2.68  14 2.69
                             4 3.02
  92  0.600  0.402  0.802-  90 2.54  91 2.54  74 2.59 113 2.59   4 2.62  68 2.64  89 2.64  97 2.65
                            88 2.87 109 2.90
  93  0.601  0.602  0.000- 119 2.58  94 2.58  97 2.58  90 2.59  74 2.60  75 2.60  98 2.61 113 2.61

  94  0.599  0.603  0.197-  99 2.58  93 2.58 114 2.59 120 2.59  76 2.60  95 2.62  70 2.62  13 2.69
                            75 2.91
  95  0.599  0.607  0.398- 100 2.48  77 2.58 121 2.61  94 2.62  96 2.62  71 2.66  14 2.68 115 2.69

  96  0.605  0.597  0.596- 116 2.44  10 2.54 122 2.56  91 2.57  72 2.61  95 2.62 101 2.68  97 2.72
                            14 2.87
  97  0.607  0.609  0.808-  93 2.58 118 2.58 117 2.59  73 2.63  92 2.65  78 2.69  96 2.72  10 2.73
                            98 2.80 122 2.88
  98  0.600  0.796  0.985-  78 2.56  93 2.61  83 2.62 118 2.64 103 2.65  11 2.73  99 2.75 102 2.76
                            97 2.80  82 2.90
  99  0.599  0.800  0.196-  94 2.58 104 2.59  75 2.60 119 2.60  84 2.63 100 2.65  79 2.68  98 2.75
                            85 2.84  11 3.03
 100  0.599  0.797  0.397-  85 2.46  95 2.48  76 2.59 105 2.60  80 2.62 120 2.65 101 2.65  99 2.65

 101  0.605  0.804  0.603- 106 2.58 121 2.58  86 2.60  77 2.62 100 2.65  96 2.68  10 2.74  81 2.74
                           123 2.88 122 2.92
 102  0.783  0.975  0.981- 118 2.53  17 2.61 103 2.61 106 2.64  83 2.64  15 2.74  98 2.76 122 2.77
                            22 2.81 123 2.91
 103  0.802  0.995  0.193-   1 2.53 119 2.57 102 2.61 107 2.64  98 2.65 104 2.70  23 2.71  84 2.71
                           124 3.19
 104  0.803  0.991  0.397- 120 2.52  18 2.54  99 2.59  85 2.61 105 2.65  24 2.69 103 2.70 124 2.82
                           119 2.91
 105  0.800  0.992  0.598- 121 2.53  19 2.54 106 2.55 100 2.60  16 2.63  86 2.64 104 2.65  25 2.67

 106  0.805  0.001  0.798-  20 2.53 105 2.55 101 2.58  21 2.59 122 2.60 108 2.63 102 2.64 123 2.67
                            15 3.00
 107  0.798  0.196  0.192-  83 2.53  15 2.58 110 2.60  22 2.63 103 2.64  28 2.64   3 2.69 124 2.70

 108  0.801  0.202  0.802-  16 2.51  15 2.58  26 2.60   4 2.60 106 2.63  86 2.64  89 2.64  25 2.66
                           123 3.14
 109  0.794  0.399  0.988-   4 2.48  89 2.53 113 2.57  90 2.60 110 2.67   5 2.68  26 2.68  15 2.73
                            92 2.90
 110  0.805  0.398  0.194- 111 2.50 107 2.60  87 2.62  32 2.62  27 2.64 114 2.67 109 2.67  13 2.70
                             5 2.97  15 2.99
 111  0.787  0.399  0.378- 110 2.50 115 2.52   3 2.54  14 2.69 124 2.69   6 2.71  28 2.78  13 2.80

 112  0.799  0.408  0.613-   4 2.51  33 2.56  91 2.60 116 2.63  16 2.76  12 2.82  29 2.87 117 2.88
                             6 3.00 124 3.14
 113  0.799  0.601  0.000- 118 2.53 109 2.57 117 2.59  92 2.59 114 2.60  93 2.61  31 2.63  35 2.64
                             5 3.01   4 3.02
 114  0.795  0.599  0.196-  90 2.59  36 2.59  94 2.59 119 2.60 113 2.60 115 2.64 110 2.67   5 2.67
                            13 3.00
 115  0.805  0.605  0.403- 111 2.52 120 2.56  37 2.62  32 2.62 114 2.64  95 2.69  13 2.71 116 2.72
                             6 2.96
 116  0.799  0.608  0.609-  96 2.44 121 2.54  38 2.56 117 2.57 112 2.63   6 2.65 115 2.72  14 2.73

 117  0.799  0.600  0.802- 116 2.57  97 2.59 113 2.59  34 2.60  33 2.60  91 2.61   4 2.61 122 2.64
                           112 2.88
 118  0.809  0.800  0.007-   1 2.49  34 2.53 102 2.53 113 2.53 119 2.56  97 2.58  98 2.64 122 2.65
                            35 2.86
 119  0.798  0.799  0.198- 118 2.56 103 2.57  93 2.58  18 2.59 114 2.60  99 2.60 120 2.61  35 2.61
                           104 2.91   1 3.02
 120  0.801  0.797  0.397- 104 2.52 115 2.56  36 2.59  94 2.59 119 2.61  19 2.61 100 2.65 121 2.68

 121  0.801  0.800  0.602- 105 2.53 116 2.54 101 2.58  20 2.59  95 2.61  37 2.63 122 2.64 120 2.68

 122  0.789  0.798  0.798-  96 2.56 106 2.60  17 2.64 121 2.64 117 2.64 118 2.65  38 2.72 102 2.77
                            97 2.88 101 2.92
 123  0.595  0.983  0.793-  81 2.57  86 2.66 106 2.67  83 2.68  15 2.70  65 2.70  89 2.77  82 2.80
                           101 2.88 102 2.91  64 3.01 108 3.14  87 3.20
 124  0.814  0.214  0.408-  29 2.69 111 2.69 107 2.70  23 2.72  16 2.77  84 2.79  12 2.81 104 2.82
                            28 2.95  24 3.08 112 3.14   3 3.17 103 3.19  85 3.23
 
  LATTYP: Found a triclinic cell.
 ALAT       =    13.1213514486
 B/A-ratio  =     1.6340986829
 C/A-ratio  =     1.9098641834
 COS(alpha) =     0.0001373337
 COS(beta)  =     0.5223382268
 COS(gamma) =     0.8168369773
  
  Lattice vectors:
  
 A1 = (  -7.5784932810,  -7.5673202570,   7.5810268140)
 A2 = ( -15.1698261740,   0.0039430650,  15.1531463720)
 A3 = (  -7.5128275220, -22.6970494610,  -7.5103213480)


Analysis of symmetry for initial positions (statically):
=====================================================================
 Subroutine PRICEL returns:
 Original cell was already a primitive cell.
 

 Routine SETGRP: Setting up the symmetry group for a 
 triclinic supercell.


 Subroutine GETGRP returns: Found  1 space group operations
 (whereof  1 operations were pure point group operations)
 out of a pool of  2 trial point group operations.


The static configuration has the point symmetry C_1 .


Analysis of symmetry for dynamics (positions and initial velocities):
=====================================================================
 Subroutine PRICEL returns:
 Original cell was already a primitive cell.
 

 Routine SETGRP: Setting up the symmetry group for a 
 triclinic supercell.


 Subroutine GETGRP returns: Found  1 space group operations
 (whereof  1 operations were pure point group operations)
 out of a pool of  2 trial point group operations.


The dynamic configuration has the point symmetry C_1 .


 Subroutine INISYM returns: Found  1 space group operations
 (whereof  1 operations are pure point group operations),
 and found     1 'primitive' translations


----------------------------------------------------------------------------------------

                                     Primitive cell                                     

  volume of cell :    1727.8235

  direct lattice vectors                    reciprocal lattice vectors
    -7.591332893  7.571263322  7.572119558     0.000287796  0.066095611  0.066263809
     7.538506746 -7.580117697  7.528135860     0.066383288  0.000095404  0.066456334
     7.578493281  7.567320257 -7.581026814     0.066207605  0.066112690  0.000270385

  length of vectors
    13.125904083 13.075171042 13.121351449     0.093592761  0.093931860  0.093564993

  position of ions in fractional coordinates (direct lattice)
     0.996277306  0.998419857  0.194724440
     0.392425663  0.196258944  0.194809762
     0.593706029  0.195310666  0.192981544
     0.799677626  0.400682179  0.801534492
     0.999007114  0.599680539  0.196601055
     0.992344309  0.595666174  0.597232505
     0.199793059  0.002375974  0.599660666
     0.210387705  0.600917302  0.601521147
     0.399832340  0.001151030  0.398669398
     0.448193507  0.643631207  0.643396747
     0.395179836  0.794931148  0.994967942
     0.588326799  0.190558323  0.394876562
     0.598870673  0.396755979  0.195074267
     0.590733523  0.399604048  0.399208247
     0.800506442  0.195197498  0.996266174
     0.799832141  0.196352873  0.608290383
     0.994347533  0.996637470  0.999670377
     0.998259135  0.998434647  0.393959719
     0.995768211  0.999589065  0.599625664
     0.997769165  0.998008897  0.801367448
     0.004255313  0.196173665  0.998713068
     0.998627260  0.192337335  0.195090596
     0.013233095  0.200576406  0.398166249
     0.008641837  0.196939997  0.603312478
     0.002147620  0.199765959  0.801662817
     0.002326566  0.398162192  0.001085092
     0.007923946  0.397490335  0.202317226
     0.003273508  0.398018186  0.392677990
     0.020595287  0.409823244  0.621523331
     0.003191297  0.403295009  0.809322359
     0.995264607  0.595921027  0.993388789
     0.001175228  0.599116389  0.398623908
     0.999463499  0.602535899  0.806521307
     0.999296752  0.800566544  0.998675822
     0.000461945  0.806925315  0.199900533
     0.996645776  0.794677053  0.393228763
     0.003661553  0.807282568  0.602943200
     0.999210129  0.802665149  0.802876899
     0.198293580  0.003992967  0.004234557
     0.192399261  0.999350519  0.197540085
     0.194720141  0.999528475  0.393557551
     0.198520153  0.000540450  0.804621467
     0.196153910  0.198798839  0.999509131
     0.199008109  0.200354961  0.198530172
     0.197535090  0.199371562  0.396584209
     0.203259606  0.205494863  0.600882887
     0.199450780  0.199090798  0.800378086
     0.200980190  0.397880054  0.002001197
     0.201381769  0.399212315  0.201322513
     0.203949497  0.403150653  0.401910313
     0.206660124  0.396255516  0.603746780
     0.202281800  0.397534789  0.804443517
     0.199908788  0.599014112  0.004192421
     0.203705270  0.598301150  0.199619793
     0.197460862  0.599885929  0.391948228
     0.193284548  0.594209370  0.799895940
     0.192986958  0.800722531  0.000902031
     0.193779544  0.796178201  0.197060316
     0.201642780  0.806685008  0.402789444
     0.197593910  0.800854275  0.603387194
     0.202780174  0.805324343  0.804401163
     0.401039128  0.005405228  0.001320074
     0.389099421  0.996002286  0.187317350
     0.407575919  0.007419774  0.607920373
     0.397583215  0.000503643  0.800979772
     0.390225449  0.196968822  0.999126107
     0.390329739  0.204807995  0.394438106
     0.397945372  0.199397841  0.600010274
     0.403814673  0.205412159  0.806366178
     0.399033595  0.398237901  0.000538069
     0.395200671  0.397176947  0.201297105
     0.394138537  0.405023377  0.402501562
     0.405691923  0.405713631  0.606890754
     0.402918858  0.400773093  0.802653019
     0.401015200  0.594879905  0.003192415
     0.400231071  0.597656274  0.198815435
     0.403136100  0.603805749  0.402536033
     0.396265235  0.593599799  0.806166212
     0.396369164  0.798215462  0.201896019
     0.400157985  0.796489075  0.397810501
     0.392204164  0.802493411  0.590428758
     0.411166384  0.808871599  0.804968305
     0.599265400  0.001334355  0.004088425
     0.598264163  0.001053967  0.195417087
     0.599126514  0.982384591  0.389305081
     0.600715424  0.999475309  0.598188747
     0.595647775  0.199192201  0.001308809
     0.603877151  0.210859381  0.615913671
     0.598891171  0.199748484  0.802172243
     0.599189648  0.401754576  0.994729192
     0.596260507  0.400797429  0.606058184
     0.600498832  0.401999211  0.801592420
     0.600557115  0.601956916  0.000401492
     0.599291750  0.603299912  0.197262524
     0.599151311  0.606987921  0.398011110
     0.605403526  0.596648681  0.596247754
     0.606756142  0.608981383  0.807978231
     0.600392690  0.795835713  0.985468695
     0.599362770  0.800206266  0.195797756
     0.599392385  0.796620847  0.396785401
     0.605360778  0.803729685  0.602682270
     0.782934868  0.974963678  0.981433734
     0.801806704  0.995232588  0.192747288
     0.803135653  0.990511770  0.397042041
     0.799573106  0.992117387  0.598224718
     0.805312230  0.001309759  0.797673016
     0.798378925  0.195748062  0.192054285
     0.800747382  0.202208751  0.802025901
     0.794133706  0.398678077  0.987611346
     0.804611647  0.397678576  0.194081090
     0.787338594  0.398727548  0.378154199
     0.799156062  0.408453166  0.613143350
     0.799275743  0.601129736  0.000056432
     0.794815307  0.598745736  0.196154929
     0.805052571  0.604803499  0.402765655
     0.799445533  0.608422474  0.609407447
     0.799041534  0.600489124  0.802342728
     0.809449716  0.800440468  0.007193565
     0.798245465  0.799336604  0.198133405
     0.801253362  0.797263279  0.397125957
     0.800659842  0.800093177  0.601772332
     0.788700841  0.797594113  0.798041486
     0.594843577  0.983460542  0.793193509
     0.813952673  0.213540822  0.408324802

  ion indices of the primitive-cell ions
   primitive index   ion index
                 1           1
                 2           2
                 3           3
                 4           4
                 5           5
                 6           6
                 7           7
                 8           8
                 9           9
                10          10
                11          11
                12          12
                13          13
                14          14
                15          15
                16          16
                17          17
                18          18
                19          19
                20          20
                21          21
                22          22
                23          23
                24          24
                25          25
                26          26
                27          27
                28          28
                29          29
                30          30
                31          31
                32          32
                33          33
                34          34
                35          35
                36          36
                37          37
                38          38
                39          39
                40          40
                41          41
                42          42
                43          43
                44          44
                45          45
                46          46
                47          47
                48          48
                49          49
                50          50
                51          51
                52          52
                53          53
                54          54
                55          55
                56          56
                57          57
                58          58
                59          59
                60          60
                61          61
                62          62
                63          63
                64          64
                65          65
                66          66
                67          67
                68          68
                69          69
                70          70
                71          71
                72          72
                73          73
                74          74
                75          75
                76          76
                77          77
                78          78
                79          79
                80          80
                81          81
                82          82
                83          83
                84          84
                85          85
                86          86
                87          87
                88          88
                89          89
                90          90
                91          91
                92          92
                93          93
                94          94
                95          95
                96          96
                97          97
                98          98
                99          99
               100         100
               101         101
               102         102
               103         103
               104         104
               105         105
               106         106
               107         107
               108         108
               109         109
               110         110
               111         111
               112         112
               113         113
               114         114
               115         115
               116         116
               117         117
               118         118
               119         119
               120         120
               121         121
               122         122
               123         123
               124         124

----------------------------------------------------------------------------------------

 
 
 KPOINTS: KPOINTS generated by db_to_vasp         

Automatic generation of k-mesh.
 Grid dimensions read from file:
 generate k-points for:    4    4    4

 Generating k-lattice:

  Cartesian coordinates                     Fractional coordinates (reciprocal lattice)
     0.000071949  0.016523903  0.016565952     0.250000000  0.000000000 -0.000000000
     0.016595822  0.000023851  0.016614084    -0.000000000  0.250000000 -0.000000000
     0.016551901  0.016528173  0.000067596     0.000000000 -0.000000000  0.250000000

  Length of vectors
     0.023398190  0.023482965  0.023391248

  Shift w.r.t. Gamma in fractional coordinates (k-lattice)
     0.000000000  0.000000000  0.000000000

 
 Subroutine IBZKPT returns following result:
 ===========================================
 
 Found     36 irreducible k-points:
 
 Following reciprocal coordinates:
            Coordinates               Weight
  0.000000  0.000000  0.000000      1.000000
  0.250000  0.000000  0.000000      2.000000
  0.500000  0.000000  0.000000      1.000000
  0.000000  0.250000  0.000000      2.000000
  0.250000  0.250000  0.000000      2.000000
  0.500000  0.250000  0.000000      2.000000
 -0.250000  0.250000  0.000000      2.000000
  0.000000  0.500000  0.000000      1.000000
  0.250000  0.500000  0.000000      2.000000
  0.500000  0.500000  0.000000      1.000000
  0.000000  0.000000  0.250000      2.000000
  0.250000  0.000000  0.250000      2.000000
  0.500000  0.000000  0.250000      2.000000
 -0.250000  0.000000  0.250000      2.000000
  0.000000  0.250000  0.250000      2.000000
  0.250000  0.250000  0.250000      2.000000
  0.500000  0.250000  0.250000      2.000000
 -0.250000  0.250000  0.250000      2.000000
  0.000000  0.500000  0.250000      2.000000
  0.250000  0.500000  0.250000      2.000000
  0.500000  0.500000  0.250000      2.000000
 -0.250000  0.500000  0.250000      2.000000
  0.000000 -0.250000  0.250000      2.000000
  0.250000 -0.250000  0.250000      2.000000
  0.500000 -0.250000  0.250000      2.000000
 -0.250000 -0.250000  0.250000      2.000000
  0.000000  0.000000  0.500000      1.000000
  0.250000  0.000000  0.500000      2.000000
  0.500000  0.000000  0.500000      1.000000
  0.000000  0.250000  0.500000      2.000000
  0.250000  0.250000  0.500000      2.000000
  0.500000  0.250000  0.500000      2.000000
 -0.250000  0.250000  0.500000      2.000000
  0.000000  0.500000  0.500000      1.000000
  0.250000  0.500000  0.500000      2.000000
  0.500000  0.500000  0.500000      1.000000
 
 Following cartesian coordinates:
            Coordinates               Weight
  0.000000  0.000000  0.000000      1.000000
  0.000072  0.016524  0.016566      2.000000
  0.000144  0.033048  0.033132      1.000000
  0.016596  0.000024  0.016614      2.000000
  0.016668  0.016548  0.033180      2.000000
  0.016740  0.033072  0.049746      2.000000
  0.016524 -0.016500  0.000048      2.000000
  0.033192  0.000048  0.033228      1.000000
  0.033264  0.016572  0.049794      2.000000
  0.033336  0.033096  0.066360      1.000000
  0.016552  0.016528  0.000068      2.000000
  0.016624  0.033052  0.016634      2.000000
  0.016696  0.049576  0.033200      2.000000
  0.016480  0.000004 -0.016498      2.000000
  0.033148  0.016552  0.016682      2.000000
  0.033220  0.033076  0.033248      2.000000
  0.033292  0.049600  0.049814      2.000000
  0.033076  0.000028  0.000116      2.000000
  0.049744  0.016576  0.033296      2.000000
  0.049815  0.033100  0.049862      2.000000
  0.049887  0.049624  0.066428      2.000000
  0.049672  0.000052  0.016730      2.000000
 -0.000044  0.016504 -0.016546      2.000000
  0.000028  0.033028  0.000019      2.000000
  0.000100  0.049552  0.016585      2.000000
 -0.000116 -0.000020 -0.033112      2.000000
  0.033104  0.033056  0.000135      1.000000
  0.033176  0.049580  0.016701      2.000000
  0.033248  0.066104  0.033267      1.000000
  0.049700  0.033080  0.016749      2.000000
  0.049772  0.049604  0.033315      2.000000
  0.049844  0.066128  0.049881      2.000000
  0.049628  0.016556  0.000183      2.000000
  0.066295  0.033104  0.033363      1.000000
  0.066367  0.049628  0.049929      2.000000
  0.066439  0.066152  0.066495      1.000000
 


--------------------------------------------------------------------------------------------------------




 Dimension of arrays:
   k-points           NKPTS =     36   k-points in BZ     NKDIM =     36   number of bands    NBANDS=    816
   number of dos      NEDOS =    301   number of ions     NIONS =    124
   non local maximal  LDIM  =      6   non local SUM 2l+1 LMDIM =     18
   total plane-waves  NPLWV = 941192
   max r-space proj   IRMAX =      1   max aug-charges    IRDMAX=  31289
   dimension x,y,z NGX =    98 NGY =   98 NGZ =   98
   dimension x,y,z NGXF=   196 NGYF=  196 NGZF=  196
   support grid    NGXF=   196 NGYF=  196 NGZF=  196
   ions per type =               4  12 106   1   1
   NGX,Y,Z   is equivalent  to a cutoff of  12.41, 12.46, 12.42 a.u.
   NGXF,Y,Z  is equivalent  to a cutoff of  24.82, 24.92, 24.83 a.u.

 SYSTEM =  unknown system                          
 POSCAR =  Cr Ti V  W  Zr                          

 Startparameter for this run:
   NWRITE =      2    write-flag & timer
   PREC   = accura    normal or accurate (medium, high low for compatibility)
   ISTART =      0    job   : 0-new  1-cont  2-samecut
   ICHARG =      2    charge: 1-file 2-atom 10-const
   ISPIN  =      1    spin polarized calculation?
   LNONCOLLINEAR =      F non collinear calculations
   LSORBIT =      F    spin-orbit coupling
   INIWAV =      1    electr: 0-lowe 1-rand  2-diag
   LASPH  =      F    aspherical Exc in radial PAW
 Electronic Relaxation 1
   ENCUT  =  520.0 eV  38.22 Ry    6.18 a.u.  24.41 24.31 24.40*2*pi/ulx,y,z
   ENINI  =  520.0     initial cutoff
   ENAUG  =  598.5 eV  augmentation charge cutoff
   NELM   =    100;   NELMIN=  2; NELMDL= -5     # of ELM steps 
   EDIFF  = 0.1E-05   stopping-criterion for ELM
   LREAL  =      F    real-space projection
   NLSPLINE    = F    spline interpolate recip. space projectors
   LCOMPAT=      F    compatible to vasp.4.4
   GGA_COMPAT  = T    GGA compatible to vasp.4.4-vasp.4.6
   LMAXPAW     = -100 max onsite density
   LMAXMIX     =    2 max onsite mixed and CHGCAR
   VOSKOWN=      0    Vosko Wilk Nusair interpolation
   ROPT   =    0.00000   0.00000   0.00000   0.00000
   ROPT   =    0.00000
 Ionic relaxation
   EDIFFG = -.1E-01   stopping-criterion for IOM
   NSW    =     -1    number of steps for IOM
   NBLOCK =      1;   KBLOCK =      1    inner block; outer block 
   IBRION =      2    ionic relax: 0-MD 1-quasi-New 2-CG
   NFREE  =      1    steps in history (QN), initial steepest desc. (CG)
   ISIF   =      2    stress and relaxation
   IWAVPR =     11    prediction:  0-non 1-charg 2-wave 3-comb
   ISYM   =      2    0-nonsym 1-usesym 2-fastsym
   LCORR  =      T    Harris-Foulkes like correction to forces

   POTIM  = 0.2000    time-step for ionic-motion
   TEIN   =    0.0    initial temperature
   TEBEG  =    0.0;   TEEND  =   0.0 temperature during run
   SMASS  =  -3.00    Nose mass-parameter (am)
   estimated Nose-frequenzy (Omega)   =  0.10E-29 period in steps = 0.31E+47 mass=  -0.394E-26a.u.
   SCALEE = 1.0000    scale energy and forces
   NPACO  =    256;   APACO  = 10.0  distance and # of slots for P.C.
   PSTRESS=    0.0 pullay stress

  Mass of Ions in am
   POMASS =  52.00 47.88 50.94183.85 91.22
  Ionic Valenz
   ZVAL   =  12.00 10.00 11.00 14.00 12.00
  Atomic Wigner-Seitz radii
   RWIGS  =  -1.00 -1.00 -1.00 -1.00 -1.00
  virtual crystal weights 
   VCA    =   1.00  1.00  1.00  1.00  1.00
   NELECT =    1360.0000    total number of electrons
   NUPDOWN=      -1.0000    fix difference up-down

 DOS related values:
   EMIN   =  10.00;   EMAX   =-10.00  energy-range for DOS
   EFERMI =   0.00;   METHOD = LEGACY      
   ISMEAR =     1;   SIGMA  =   0.20  broadening in eV -4-tet -1-fermi 0-gaus

 Electronic relaxation 2 (details)
   IALGO  =     38    algorithm
   LDIAG  =      T    sub-space diagonalisation (order eigenvalues)
   LSUBROT=      F    optimize rotation matrix (better conditioning)
   TURBO    =      0    0=normal 1=particle mesh
   IRESTART =      0    0=no restart 2=restart with 2 vectors
   NREBOOT  =      0    no. of reboots
   NMIN     =      0    reboot dimension
   EREF     =   0.00    reference energy to select bands
   IMIX   =      4    mixing-type and parameters
     AMIX     =   0.40;   BMIX     =  1.00
     AMIX_MAG =   1.60;   BMIX_MAG =  1.00
     AMIN     =   0.10
     WC   =   100.;   INIMIX=   1;  MIXPRE=   1;  MAXMIX= -45

 Intra band minimization:
   WEIMIN = 0.0010     energy-eigenvalue tresh-hold
   EBREAK =  0.31E-09  absolut break condition
   DEPER  =   0.30     relativ break condition  

   TIME   =   0.40     timestep for ELM

  volume/ion in A,a.u.               =      13.93        94.03
  Fermi-wavevector in a.u.,A,eV,Ry     =   1.511546  2.856408 31.086197  2.284771
  Thomas-Fermi vector in A             =   2.621589
 
 Write flags
   LWAVE        =      F    write WAVECAR
   LDOWNSAMPLE  =      F    k-point downsampling of WAVECAR
   LCHARG       =      T    write CHGCAR
   LVTOT        =      F    write LOCPOT, total local potential
   LVHAR        =      F    write LOCPOT, Hartree potential only
   LELF         =      F    write electronic localiz. function (ELF)
   LORBIT       =     11    0 simple, 1 ext, 2 COOP (PROOUT), +10 PAW based schemes


 Dipole corrections
   LMONO  =      F    monopole corrections only (constant potential shift)
   LDIPOL =      F    correct potential (dipole corrections)
   IDIPOL =      0    1-x, 2-y, 3-z, 4-all directions 
   EPSILON=  1.0000000 bulk dielectric constant

 Exchange correlation treatment:
   GGA     =    PE    GGA type
   LEXCH   =     8    internal setting for exchange type
   LIBXC   =     F    Libxc                    
   VOSKOWN =     0    Vosko Wilk Nusair interpolation
   LHFCALC =     F    Hartree Fock is set to
   LHFONE  =     F    Hartree Fock one center treatment
   AEXX    =    0.0000 exact exchange contribution

 Linear response parameters
   LEPSILON=     F    determine dielectric tensor
   LRPA    =     F    only Hartree local field effects (RPA)
   LNABLA  =     F    use nabla operator in PAW spheres
   LVEL    =     F    velocity operator in full k-point grid
   CSHIFT  =0.1000    complex shift for real part using Kramers Kronig
   OMEGAMAX=  -1.0    maximum frequency
   DEG_THRESHOLD= 0.2000000E-02 threshold for treating states as degnerate
   RTIME   =   -0.100 relaxation time in fs
  (WPLASMAI=    0.000 imaginary part of plasma frequency in eV, 0.658/RTIME)
   DFIELD  = 0.0000000 0.0000000 0.0000000 field for delta impulse in time
 
  Optional k-point grid parameters
   LKPOINTS_OPT  =     F    use optional k-point grid
   KPOINTS_OPT_MODE=     1    mode for optional k-point grid
 
 Orbital magnetization related:
   ORBITALMAG=     F  switch on orbital magnetization
   LCHIMAG   =     F  perturbation theory with respect to B field
   DQ        =  0.001000  dq finite difference perturbation B field
   LLRAUG    =     F  two centre corrections for induced B field
   LBONE     =     F  B-component reconstruction in AE one-centre
   LVGVCALC  =     T  calculate vGv susceptibility
   LVGVAPPL  =     F  apply vGv susceptibility instead of pGv for G=0

 Random number generation:
   RANDOM_GENERATOR = DEFAULT
   PCG_SEED         = not used


--------------------------------------------------------------------------------------------------------


 conjugate gradient relaxation of ions
 charge density and potential will be updated during run
 non-spin polarized calculation
 Variant of blocked Davidson
 Davidson routine will perform the subspace rotation
 perform sub-space diagonalisation
    after iterative eigenvector-optimisation
 modified Broyden-mixing scheme, WC =      100.0
 initial mixing is a Kerker type mixing with AMIX =  0.4000 and BMIX =      1.0000
 Hartree-type preconditioning will be used
 using additional bands           136
 reciprocal scheme for non local part
 use partial core corrections
 calculate Harris-corrections to forces 
   (improved forces if not selfconsistent)
 use gradient corrections 
 use of overlap-Matrix (Vanderbilt PP)
 Methfessel and Paxton  Order N= 1 SIGMA  =   0.20


--------------------------------------------------------------------------------------------------------


  energy-cutoff  :      520.00
  volume of cell :     1727.82
      direct lattice vectors                 reciprocal lattice vectors
    -7.591332893  7.571263322  7.572119558     0.000287796  0.066095611  0.066263809
     7.538506746 -7.580117697  7.528135860     0.066383288  0.000095404  0.066456334
     7.578493281  7.567320257 -7.581026814     0.066207605  0.066112690  0.000270385

  length of vectors
    13.125904083 13.075171042 13.121351449     0.093592761  0.093931860  0.093564993


 
 k-points in units of 2pi/SCALE and weight: KPOINTS generated by db_to_vasp         
   0.00000000  0.00000000  0.00000000       0.016
   0.00007195  0.01652390  0.01656595       0.031
   0.00014390  0.03304781  0.03313190       0.016
   0.01659582  0.00002385  0.01661408       0.031
   0.01666777  0.01654775  0.03318004       0.031
   0.01673972  0.03307166  0.04974599       0.031
   0.01652387 -0.01650005  0.00004813       0.031
   0.03319164  0.00004770  0.03322817       0.016
   0.03326359  0.01657160  0.04979412       0.031
   0.03333554  0.03309551  0.06636007       0.016
   0.01655190  0.01652817  0.00006760       0.031
   0.01662385  0.03305208  0.01663355       0.031
   0.01669580  0.04957598  0.03319950       0.031
   0.01647995  0.00000427 -0.01649836       0.031
   0.03314772  0.01655202  0.01668168       0.031
   0.03321967  0.03307593  0.03324763       0.031
   0.03329162  0.04959983  0.04981358       0.031
   0.03307577  0.00002812  0.00011573       0.031
   0.04974355  0.01657587  0.03329576       0.031
   0.04981549  0.03309978  0.04986172       0.031
   0.04988744  0.04962368  0.06642767       0.031
   0.04967160  0.00005197  0.01672981       0.031
  -0.00004392  0.01650432 -0.01654649       0.031
   0.00002803  0.03302822  0.00001946       0.031
   0.00009998  0.04955213  0.01658542       0.031
  -0.00011587 -0.00001958 -0.03311244       0.031
   0.03310380  0.03305635  0.00013519       0.016
   0.03317575  0.04958025  0.01670114       0.031
   0.03324770  0.06610415  0.03326710       0.016
   0.04969962  0.03308020  0.01674928       0.031
   0.04977157  0.04960410  0.03331523       0.031
   0.04984352  0.06612800  0.04988118       0.031
   0.04962768  0.01655629  0.00018332       0.031
   0.06629545  0.03310405  0.03336336       0.016
   0.06636740  0.04962795  0.04992931       0.031
   0.06643934  0.06615185  0.06649526       0.016
 
 k-points in reciprocal lattice and weights: KPOINTS generated by db_to_vasp         
   0.00000000  0.00000000  0.00000000       0.016
   0.25000000  0.00000000  0.00000000       0.031
   0.50000000  0.00000000  0.00000000       0.016
   0.00000000  0.25000000  0.00000000       0.031
   0.25000000  0.25000000  0.00000000       0.031
   0.50000000  0.25000000  0.00000000       0.031
  -0.25000000  0.25000000  0.00000000       0.031
   0.00000000  0.50000000  0.00000000       0.016
   0.25000000  0.50000000  0.00000000       0.031
   0.50000000  0.50000000  0.00000000       0.016
   0.00000000  0.00000000  0.25000000       0.031
   0.25000000  0.00000000  0.25000000       0.031
   0.50000000  0.00000000  0.25000000       0.031
  -0.25000000  0.00000000  0.25000000       0.031
   0.00000000  0.25000000  0.25000000       0.031
   0.25000000  0.25000000  0.25000000       0.031
   0.50000000  0.25000000  0.25000000       0.031
  -0.25000000  0.25000000  0.25000000       0.031
   0.00000000  0.50000000  0.25000000       0.031
   0.25000000  0.50000000  0.25000000       0.031
   0.50000000  0.50000000  0.25000000       0.031
  -0.25000000  0.50000000  0.25000000       0.031
   0.00000000 -0.25000000  0.25000000       0.031
   0.25000000 -0.25000000  0.25000000       0.031
   0.50000000 -0.25000000  0.25000000       0.031
  -0.25000000 -0.25000000  0.25000000       0.031
   0.00000000  0.00000000  0.50000000       0.016
   0.25000000  0.00000000  0.50000000       0.031
   0.50000000  0.00000000  0.50000000       0.016
   0.00000000  0.25000000  0.50000000       0.031
   0.25000000  0.25000000  0.50000000       0.031
   0.50000000  0.25000000  0.50000000       0.031
  -0.25000000  0.25000000  0.50000000       0.031
   0.00000000  0.50000000  0.50000000       0.016
   0.25000000  0.50000000  0.50000000       0.031
   0.50000000  0.50000000  0.50000000       0.016
 
 position of ions in fractional coordinates (direct lattice) 
   0.99627731  0.99841986  0.19472444
   0.39242566  0.19625894  0.19480976
   0.59370603  0.19531067  0.19298154
   0.79967763  0.40068218  0.80153449
   0.99900711  0.59968054  0.19660106
   0.99234431  0.59566617  0.59723251
   0.19979306  0.00237597  0.59966067
   0.21038770  0.60091730  0.60152115
   0.39983234  0.00115103  0.39866940
   0.44819351  0.64363121  0.64339675
   0.39517984  0.79493115  0.99496794
   0.58832680  0.19055832  0.39487656
   0.59887067  0.39675598  0.19507427
   0.59073352  0.39960405  0.39920825
   0.80050644  0.19519750  0.99626617
   0.79983214  0.19635287  0.60829038
   0.99434753  0.99663747  0.99967038
   0.99825914  0.99843465  0.39395972
   0.99576821  0.99958907  0.59962566
   0.99776916  0.99800890  0.80136745
   0.00425531  0.19617366  0.99871307
   0.99862726  0.19233734  0.19509060
   0.01323309  0.20057641  0.39816625
   0.00864184  0.19694000  0.60331248
   0.00214762  0.19976596  0.80166282
   0.00232657  0.39816219  0.00108509
   0.00792395  0.39749034  0.20231723
   0.00327351  0.39801819  0.39267799
   0.02059529  0.40982324  0.62152333
   0.00319130  0.40329501  0.80932236
   0.99526461  0.59592103  0.99338879
   0.00117523  0.59911639  0.39862391
   0.99946350  0.60253590  0.80652131
   0.99929675  0.80056654  0.99867582
   0.00046194  0.80692531  0.19990053
   0.99664578  0.79467705  0.39322876
   0.00366155  0.80728257  0.60294320
   0.99921013  0.80266515  0.80287690
   0.19829358  0.00399297  0.00423456
   0.19239926  0.99935052  0.19754009
   0.19472014  0.99952848  0.39355755
   0.19852015  0.00054045  0.80462147
   0.19615391  0.19879884  0.99950913
   0.19900811  0.20035496  0.19853017
   0.19753509  0.19937156  0.39658421
   0.20325961  0.20549486  0.60088289
   0.19945078  0.19909080  0.80037809
   0.20098019  0.39788005  0.00200120
   0.20138177  0.39921231  0.20132251
   0.20394950  0.40315065  0.40191031
   0.20666012  0.39625552  0.60374678
   0.20228180  0.39753479  0.80444352
   0.19990879  0.59901411  0.00419242
   0.20370527  0.59830115  0.19961979
   0.19746086  0.59988593  0.39194823
   0.19328455  0.59420937  0.79989594
   0.19298696  0.80072253  0.00090203
   0.19377954  0.79617820  0.19706032
   0.20164278  0.80668501  0.40278944
   0.19759391  0.80085427  0.60338719
   0.20278017  0.80532434  0.80440116
   0.40103913  0.00540523  0.00132007
   0.38909942  0.99600229  0.18731735
   0.40757592  0.00741977  0.60792037
   0.39758322  0.00050364  0.80097977
   0.39022545  0.19696882  0.99912611
   0.39032974  0.20480799  0.39443811
   0.39794537  0.19939784  0.60001027
   0.40381467  0.20541216  0.80636618
   0.39903360  0.39823790  0.00053807
   0.39520067  0.39717695  0.20129711
   0.39413854  0.40502338  0.40250156
   0.40569192  0.40571363  0.60689075
   0.40291886  0.40077309  0.80265302
   0.40101520  0.59487991  0.00319241
   0.40023107  0.59765627  0.19881544
   0.40313610  0.60380575  0.40253603
   0.39626523  0.59359980  0.80616621
   0.39636916  0.79821546  0.20189602
   0.40015798  0.79648908  0.39781050
   0.39220416  0.80249341  0.59042876
   0.41116638  0.80887160  0.80496830
   0.59926540  0.00133435  0.00408843
   0.59826416  0.00105397  0.19541709
   0.59912651  0.98238459  0.38930508
   0.60071542  0.99947531  0.59818875
   0.59564777  0.19919220  0.00130881
[...]
   0.243E+02 -.936E+02 0.405E+02   -.241E+02 0.935E+02 -.409E+02   -.270E+00 0.162E+00 0.391E+00   0.446E-02 -.373E-02 0.805E-03
   0.304E+02 -.631E+02 0.771E+02   -.298E+02 0.634E+02 -.770E+02   -.569E+00 -.305E+00 -.949E-01   0.452E-02 -.300E-02 -.138E-02
   0.168E+03 0.300E+01 -.106E+02   -.169E+03 -.268E+01 0.108E+02   0.437E+00 -.316E+00 -.246E+00   -.128E-02 -.201E-02 -.277E-02
   0.228E+02 0.749E+02 -.262E+02   -.229E+02 -.746E+02 0.262E+02   0.139E+00 -.228E+00 -.428E-01   0.143E-02 -.626E-03 -.555E-03
   0.126E+02 0.156E+03 0.478E+02   -.125E+02 -.156E+03 -.478E+02   -.972E-01 0.287E-01 -.440E-01   0.490E-02 -.609E-02 0.386E-02
   -.314E+02 0.128E+02 0.405E+02   0.315E+02 -.123E+02 -.409E+02   -.100E+00 -.478E+00 0.437E+00   0.366E-02 -.215E-02 0.165E-02
   0.994E+00 -.331E+02 0.222E+02   -.774E+00 0.333E+02 -.225E+02   -.223E+00 -.277E+00 0.337E+00   0.300E-02 -.172E-02 0.111E-02
   0.433E+02 -.421E+01 0.348E+02   -.435E+02 0.433E+01 -.346E+02   0.219E+00 -.123E+00 -.186E+00   0.208E-02 -.290E-02 0.505E-03
   -.646E+02 0.126E+03 0.106E+03   0.638E+02 -.125E+03 -.105E+03   0.789E+00 -.102E+01 -.789E+00   0.699E-02 -.127E-02 -.538E-03
   0.816E+02 -.125E+03 0.105E+03   -.810E+02 0.124E+03 -.104E+03   -.563E+00 0.852E+00 -.589E+00   -.338E-02 0.784E-02 -.340E-02
   -.108E+03 0.229E+01 0.471E+02   0.107E+03 -.238E+01 -.471E+02   0.801E+00 0.889E-01 -.575E-03   -.476E-03 0.112E-02 -.590E-02
 -----------------------------------------------------------------------------------------------
   -.404E+00 -.925E+00 0.524E-01   -.639E-12 0.163E-11 -.711E-12   0.402E+00 0.937E+00 -.538E-01   -.304E-02 -.544E-02 0.653E-03
 
 
 POSITION                                       TOTAL-FORCE (eV/Angst)
 -----------------------------------------------------------------------------------
      1.43924      1.44848     13.58396         0.000152     -0.000199     -0.000105
     -0.02317      2.95768      2.97210         0.000513     -0.000201     -0.000153
     -1.57216      4.47498      4.50294        -0.000320     -0.000203      0.000132
      3.02435      9.08282      2.99519         0.000146     -0.000501      0.000191
     -1.57316      4.50584     10.58864         0.000517      0.000373      0.000476
      1.48334      7.51753      7.47077        -0.000147      0.000439      0.000124
      3.04574      6.03250     -3.01530        -0.000060      0.000014     -0.000115
      7.49152      1.58978      1.55672        -0.000515     -0.000011      0.000274
     -0.00527      6.03537      0.01392         0.000269     -0.000114     -0.000022
      6.32561      3.38338      3.36151        -0.000711      0.000806     -0.000172
     10.53301      4.49558      1.43382        -0.000015      0.000117      0.000413
     -0.03709      5.99808      2.89586        -0.000058     -0.000222      0.000362
     -0.07691      3.00294      6.04269        -0.000181      0.000094      0.000215
      1.55336      4.46449      4.45497        -0.000133     -0.000575     -0.000211
      2.94478     12.12029     -0.02172        -0.000613     -0.000566     -0.000519
      0.01834      9.17049      2.92313         0.000568     -0.000147      0.000318
      7.54073      7.53866      7.45361        -0.000409     -0.000440     -0.000050
      2.93421      2.97105     12.08867        -0.000385      0.000082     -0.000123
      4.52046      4.49978     10.51934         0.000200      0.000034     -0.000594
      6.02226      6.05355      8.99319        -0.000156      0.000006     -0.000006
      9.01529      6.10278     -6.06223         0.000444     -0.000259     -0.000012
     -4.65248      7.57924      7.53068        -0.000657     -0.000336     -0.000527
      4.42909      1.59285     -1.40834        -0.000277     -0.000518     -0.000138
      5.99123      3.13806     -3.02570         0.000126      0.000224      0.000261
      7.56503      4.56845     -4.55730         0.000196     -0.000042     -0.000337
      2.99211     -2.99229      3.00681         0.000085     -0.000488      0.000022
      4.46959     -1.42203      1.51859         0.000316     -0.000150     -0.000156
      5.95152     -0.02072      0.04422        -0.000233      0.000077     -0.000134
      7.64332      1.75269     -1.47063         0.000088      0.000181      0.000922
      9.14946      3.09154     -3.07527         0.000045     -0.000167      0.000160
      4.46536     10.53555      4.49153        -0.000179     -0.000341      0.000064
      7.52849     -1.51596      1.49715        -0.000536      0.000075      0.000361
      3.06718      9.10311      5.98977         0.000081      0.000131      0.000540
      6.01754      9.05485      6.02258        -0.000627      0.000421      0.000285
      7.59445     -4.60038      4.56269        -0.000210     -0.000345      0.000207
      1.40489      4.49781     10.54808         0.000212      0.000610      0.000049
     10.62731     -1.52891      1.53413         0.000298      0.000154      0.000329
      4.55016      7.55661      7.52208        -0.000380      0.000287      0.000163
     -1.44312      1.50311      1.49946        -0.000282      0.000139      0.000760
      7.57010     -4.62364      7.48256        -0.000011     -0.000319     -0.000295
      9.03934     -3.12409      6.01546         0.000147     -0.000127     -0.000454
      4.59486      7.58778     -4.59257         0.000189      0.000314     -0.000219
      7.58435      7.54182     -4.59542         0.000000      0.000294      0.000115
      1.50420      1.49037      1.51015         0.000280     -0.000267      0.000138
      3.00892      2.98541     -0.00986        -0.000911     -0.000290     -0.000152
      4.55990      4.52833     -1.46921         0.000435     -0.000435     -0.000156
      6.05241      6.05768     -3.05864        -0.000365      0.000187     -0.000011
      1.48888     -1.47916      4.50197         0.000087      0.000096     -0.000260
      3.00643      0.02211      3.00398        -0.000642     -0.000053     -0.000132
      4.53678      1.52961      1.53241        -0.000101     -0.000768     -0.000078
      5.99384      3.12976     -0.02910         0.000236      0.000658     -0.000328
      7.55770      4.60565     -1.57411        -0.000295     -0.000209      0.000374
      3.02987     -2.99531      5.99141        -0.000186      0.000064      0.000289
      4.47672     -1.48230      4.53325         0.000032      0.000090     -0.000394
      5.99363     -0.08618      3.03985         0.000040      0.000521      0.000294
      9.07417      3.01230     -0.12717        -0.000446      0.000185     -0.000314
      4.57806     -4.60159      7.48243         0.000049     -0.000257     -0.000155
      6.02437     -3.07675      5.96714        -0.000309      0.000088      0.000241
      7.60300     -1.54004      4.54614        -0.000122     -0.000201     -0.000035
      9.11001     -0.00851      2.95085        -0.000114      0.000702      0.000790
     10.62772      1.51801      1.49988         0.000205      0.000403      0.000585
     -2.99367      3.00539      3.06740         0.000295      0.001229     -0.000147
      5.97417     -3.18635      9.02429        -0.000336      0.000086      0.000587
      1.56901      7.62995     -1.46659         0.000160      0.000149     -0.000049
      3.05583      9.06766     -3.05791         0.000400     -0.000582      0.000610
      6.09439      9.02216     -3.13676         0.000563     -0.000106      0.000211
      1.57007      4.38766      1.50720         0.000283     -0.000659     -0.000222
      3.02940      6.04196     -0.03431         0.000053     -0.000297     -0.000093
      4.59405      7.60237     -1.50898        -0.000293     -0.000344     -0.000248
     -0.02300      0.00657      6.01544         0.000163      0.000195     -0.000027
      1.51955      1.50480      4.45647         0.000507     -0.000180     -0.000547
      3.11159      2.95986      2.98216        -0.000070     -0.000321      0.000269
      4.57805      4.58878      1.52536         0.000240     -0.000041     -0.000148
      6.04544      6.08663     -0.01691         0.000695     -0.000639      0.000031
      1.46446     -1.44891      7.49067         0.000082     -0.000217     -0.000362
      2.97387      0.00445      6.02261         0.000043      0.000133     -0.000024
      4.54207      1.52145      4.54649         0.000302     -0.000032     -0.000316
      7.57620      4.60119      1.35770        -0.000205      0.000209     -0.000195
      4.53845     -1.52174      7.47985         0.000008     -0.000017     -0.000220
      5.98141      0.00258      6.01031         0.000083      0.000604      0.000216
      7.54681      1.35445      4.53504        -0.000398     -0.001452     -0.000253
      9.07683      3.07316      3.10021         0.000474      0.001372      0.000087
     -4.50818      4.55802      4.51676        -0.000052     -0.000473     -0.000376
     -3.05271      6.00041      3.05660        -0.000023      0.000217     -0.000158
      5.80789      0.03555      8.98085        -0.000534      0.000115     -0.000139
      7.50769      1.49872      7.53799         0.000072     -0.000662      0.000531
     -3.01023      3.00981      5.99994         0.000309      0.000691      0.000047
      1.67303      7.63459      1.49075        -0.000253     -0.000152      0.000108
      3.03868      9.09054     -0.04268         0.000316     -0.000714      0.000306
      6.01853      9.01871      0.02053         0.000412      0.000083      0.000061
      3.08801      6.06259      2.93767         0.000152     -0.000036      0.000228
      4.54675      7.56524      1.49646        -0.000404      0.000339      0.000136
     -0.01813     -0.01289      9.07606         0.000093      0.000027     -0.000139
      1.49351      1.45706      7.58418         0.000206      0.000224     -0.000510
      3.04375      2.94717      6.08900         0.000284     -0.000403      0.000194
      4.42068      4.57300      4.55567        -0.000018     -0.000267     -0.000621
      6.10798      6.09199      3.05362         0.000612     -0.000504      0.000388
      8.91000      5.97056      3.06654         0.000997      0.000560     -0.001360
      2.96625     -0.04606      9.07816         0.000268      0.000608     -0.000491
      4.46218      1.50228      7.52770         0.000592     -0.000690     -0.000167
      6.03085      3.05167      6.06550        -0.000228      0.000467      0.000460
      8.84404      5.96429      5.82786        -0.000544     -0.001226     -0.000312
      2.87652     -0.01471     12.10240        -0.000068      0.000105     -0.000645
      4.37909      1.57710     10.52816         0.000360     -0.000180     -0.000071
      5.94290      3.06037      8.98810        -0.000157      0.000529      0.000024
     -0.05836     12.12355      0.06060        -0.000153     -0.000353      0.000222
     -3.12963      6.01428      6.06307        -0.000062     -0.000125     -0.000072
      1.52376     10.59909      1.50543         0.000562      0.000237      0.000160
      4.46151     10.46414      1.52747         0.000206      0.000247      0.000088
     -1.63933      4.54615      7.61506         0.000150     -0.000331     -0.000613
     -0.10530      5.80036      6.09670        -0.000500     -0.000359     -0.000227
      1.65917      7.59435      4.47794        -0.000044     -0.000102      0.000133
     -1.53552      1.49532     10.57717         0.000263      0.000008      0.000498
     -0.03350      2.96356      9.03882         0.000025     -0.000033     -0.000213
      1.50025      4.55864      7.59562        -0.000305      0.000167     -0.000868
      3.13613      6.05248      6.01385        -0.000326      0.000190      0.000354
      4.54155      7.56956      4.48842        -0.000470     -0.000285     -0.000208
     -0.05616      0.11556     12.10054        -0.000405      0.000611     -0.000488
      1.46761      1.48400     10.55987         0.000408      0.000146     -0.000057
      2.93721      3.02833      9.05847         0.000051      0.000442      0.000002
      4.51396      4.55101      7.52385         0.000454      0.000194     -0.000285
      6.07333      5.96464      5.92656        -0.000931     -0.000010      0.000645
      8.90938      3.05132      5.89463         0.000805      0.002321      0.001194
     -1.47472      7.63391      4.67539        -0.000538      0.000177     -0.000010
 -----------------------------------------------------------------------------------
    total drift:                               -0.004269      0.006518     -0.000740


--------------------------------------------------------------------------------------------------------



  FREE ENERGIE OF THE ION-ELECTRON SYSTEM (eV)
  ---------------------------------------------------
  free  energy   TOTEN  =     -1097.06737045 eV

  energy  without entropy=    -1097.01191508  energy(sigma->0) =    -1097.04888532
 


--------------------------------------------------------------------------------------------------------


    POTLOK:  cpu time      0.2254: real time      0.1194


--------------------------------------------------------------------------------------------------------




--------------------------------------------------------------------------------------------------------


  
 reached required accuracy - stopping structural energy minimisation
     LOOP+:  cpu time   3790.5496: real time   3788.0562
    4ORBIT:  cpu time      0.0000: real time      0.0000



 total charge

# of ion       s       p       d       tot
------------------------------------------
    1        0.422   6.325   4.217  10.965
    2        0.414   6.311   4.188  10.913
    3        0.412   6.305   4.195  10.912
    4        0.424   6.318   4.223  10.965
    5        0.363   6.295   2.117   8.776
    6        0.351   6.274   2.092   8.717
    7        0.361   6.291   2.125   8.777
    8        0.352   6.276   2.085   8.713
    9        0.356   6.282   2.098   8.737
   10        0.340   6.235   2.103   8.678
   11        0.359   6.292   2.114   8.765
   12        0.353   6.265   2.105   8.723
   13        0.364   6.296   2.118   8.778
   14        0.359   6.278   2.122   8.760
   15        0.359   6.299   2.137   8.795
   16        0.359   6.274   2.148   8.781
   17        0.355   6.244   3.038   9.637
   18        0.352   6.233   3.043   9.628
   19        0.356   6.228   3.074   9.658
   20        0.357   6.234   3.071   9.661
   21        0.358   6.232   3.079   9.668
   22        0.351   6.234   3.026   9.610
   23        0.355   6.220   3.099   9.674
   24        0.352   6.224   3.054   9.630
   25        0.353   6.238   3.035   9.627
   26        0.351   6.231   3.049   9.631
   27        0.358   6.225   3.088   9.671
   28        0.347   6.218   3.034   9.599
   29        0.355   6.206   3.124   9.685
   30        0.355   6.230   3.058   9.643
   31        0.357   6.235   3.063   9.654
   32        0.351   6.219   3.064   9.634
   33        0.357   6.231   3.083   9.670
   34        0.359   6.235   3.094   9.689
   35        0.357   6.238   3.060   9.655
   36        0.353   6.227   3.048   9.628
   37        0.352   6.227   3.054   9.634
   38        0.352   6.232   3.039   9.623
   39        0.358   6.245   3.044   9.647
   40        0.356   6.238   3.056   9.650
   41        0.356   6.225   3.086   9.666
   42        0.357   6.233   3.069   9.658
   43        0.360   6.237   3.093   9.690
   44        0.357   6.241   3.049   9.647
   45        0.358   6.236   3.081   9.675
   46        0.358   6.230   3.087   9.674
   47        0.354   6.236   3.044   9.635
   48        0.357   6.238   3.060   9.656
   49        0.359   6.237   3.072   9.668
   50        0.348   6.224   3.028   9.601
   51        0.357   6.221   3.103   9.682
   52        0.357   6.240   3.044   9.640
   53        0.352   6.231   3.053   9.636
   54        0.357   6.229   3.081   9.667
   55        0.356   6.224   3.075   9.655
   56        0.357   6.218   3.124   9.699
   57        0.355   6.228   3.078   9.661
   58        0.353   6.229   3.042   9.624
   59        0.349   6.227   3.034   9.610
   60        0.351   6.216   3.069   9.636
   61        0.347   6.222   3.026   9.595
   62        0.357   6.233   3.074   9.664
   63        0.352   6.221   3.067   9.640
   64        0.352   6.224   3.085   9.661
   65        0.352   6.234   3.057   9.643
   66        0.356   6.232   3.075   9.664
   67        0.352   6.227   3.045   9.625
   68        0.350   6.231   3.034   9.615
   69        0.354   6.230   3.057   9.640
   70        0.355   6.236   3.052   9.643
   71        0.353   6.233   3.038   9.623
   72        0.358   6.222   3.107   9.686
   73        0.348   6.227   3.033   9.607
   74        0.359   6.234   3.074   9.667
   75        0.357   6.229   3.085   9.671
   76        0.356   6.235   3.063   9.654
   77        0.350   6.227   3.038   9.615
   78        0.365   6.233   3.059   9.657
   79        0.353   6.226   3.060   9.639
   80        0.356   6.227   3.077   9.660
   81        0.365   6.237   3.083   9.686
   82        0.354   6.215   3.037   9.606
   83        0.367   6.235   3.104   9.705
   84        0.348   6.214   3.053   9.616
   85        0.353   6.219   3.072   9.644
   86        0.349   6.233   3.036   9.618
   87        0.347   6.228   3.033   9.608
   88        0.356   6.225   3.065   9.647
   89        0.354   6.232   3.087   9.674
   90        0.358   6.233   3.078   9.668
   91        0.356   6.224   3.093   9.673
   92        0.359   6.244   3.049   9.652
   93        0.357   6.237   3.068   9.662
   94        0.356   6.233   3.061   9.650
   95        0.353   6.227   3.063   9.643
   96        0.372   6.231   3.109   9.711
   97        0.356   6.224   3.027   9.607
   98        0.345   6.213   3.008   9.566
   99        0.351   6.232   3.024   9.607
  100        0.360   6.233   3.093   9.686
  101        0.355   6.227   3.029   9.611
  102        0.345   6.211   3.015   9.571
  103        0.347   6.231   3.014   9.591
  104        0.352   6.224   3.058   9.635
  105        0.357   6.229   3.081   9.667
  106        0.366   6.238   3.089   9.693
  107        0.350   6.218   3.081   9.649
  108        0.352   6.226   3.081   9.660
  109        0.355   6.232   3.057   9.643
  110        0.351   6.220   3.061   9.631
  111        0.355   6.207   3.081   9.643
  112        0.340   6.214   3.003   9.557
  113        0.357   6.237   3.073   9.667
  114        0.353   6.226   3.059   9.638
  115        0.350   6.224   3.047   9.621
  116        0.356   6.219   3.107   9.682
  117        0.356   6.241   3.049   9.646
  118        0.375   6.250   3.097   9.722
  119        0.358   6.235   3.075   9.668
  120        0.356   6.233   3.068   9.656
  121        0.357   6.236   3.067   9.660
  122        0.346   6.219   3.007   9.573
  123        2.436   6.243   3.380  12.059
  124        2.258   5.964   1.899  10.121
--------------------------------------------------
tot         48.248 773.094 372.0631193.405
 

 total amount of memory used by VASP MPI-rank0  7324551. kBytes
=======================================================================

   base      :      30000. kBytes
   nonl-proj :    1299768. kBytes
   fftplans  :      67629. kBytes
   grid      :     189621. kBytes
   one-center:       1928. kBytes
   wavefun   :    5735605. kBytes
 
  
  
 General timing and accounting informations for this job:
 ========================================================
  
                  Total CPU time used (sec):     3915.698
                            User time (sec):     3222.980
                          System time (sec):      692.718
                         Elapsed time (sec):     3913.731
  
                   Maximum memory used (kb):     9628740.
                   Average memory used (kb):          N/A
  
                          Minor page faults:     13915640
                          Major page faults:           12
                 Voluntary context switches:       711044
