127
Lattice="11.736635361891226 -0.00407584549339791 0.002664485705144228 -0.004075710617396691 11.738506413263783 0.0006529362281632765 0.002664967552593105 0.0006528921137531925 11.738346641132775" Properties=species:S:1:pos:R:3:energies:R:1:forces:R:3 energy=-1144.443612314589 free_energy=-1144.443612314589 stress="-0.0014247786941019986 0.00020592666460708095 -0.00039410614222805754 0.00020592666460708095 -0.0017575026564631573 0.000188296506388756 -0.00039410614222805754 0.000188296506388756 -0.00234664987682938" pbc="T T T"
Cr       0.03007166       2.93317270       8.79635695      -7.73343976       0.00262210      -0.00005894      -0.00295324
Cr       1.48394724      10.26675884      10.27898077      -7.57125384       0.00094521       0.00020389       0.00156736
Cr       7.30622076       1.49159846      10.27040293      -7.45187340      -0.00104811      -0.00006077       0.00053651
Cr      10.24665411       1.48143250       4.35208910      -7.15535660      -0.00204078       0.00236995       0.00080211
Cr       8.83070443      -0.02552769       8.79615193      -7.47931405       0.00067235       0.00091370      -0.00084056
Cr       8.78684319       5.88142075       5.83298072      -7.14111877      -0.00031530      -0.00074063       0.00146705
Ti       0.02481334      -0.01249659       5.88075520      -8.28119801      -0.00004684       0.00105420      -0.00095135
Ti       4.40096481      10.27769687      10.25529440      -8.24602792       0.00143965      -0.00018740       0.00189766
Ti       7.30062902       1.46666161       7.33751033      -8.32018091       0.00236139       0.00313119      -0.00335880
Ti       7.32363790       4.39209010       7.35945010      -8.20389590      -0.00043548      -0.00422416      -0.00286721
Ti       5.87309131       8.80457820       0.00329229      -8.26890180       0.00044856      -0.00021201      -0.00033112
Ti      10.26695008       1.47335678       1.45893165      -8.19739493      -0.00032738      -0.00083003      -0.00088333
Ti       8.76808984       2.95310348       2.90454309      -8.18958223      -0.00126838      -0.00014390      -0.00034239
Ti      10.28948645       4.37633899       4.37781833      -8.32254920      -0.00216659      -0.00322319       0.00063064
Ti       8.81405227       5.86685455       0.00192904      -8.29907827       0.00094928      -0.00137847      -0.00010339
Ti      10.32069484       7.35240808       7.37164863      -8.59409049      -0.00134257       0.00085526       0.00059413
Ti       8.76874841       8.79797522       8.84113597      -8.51806851      -0.00009771      -0.00025098      -0.00061426
V       -0.01279244       0.01340184       0.00255220      -9.18445389       0.00216873       0.00225356       0.00000893
V        1.47196586       1.46961700       1.47548391      -9.52861967       0.00357124       0.00396181      -0.00048640
V        0.00123334       0.00493078       2.94854644      -9.13924490      -0.00232510      -0.00229031      -0.00231685
V        1.52539722       1.52473081       4.43010299      -9.32392030      -0.00494162      -0.00455697       0.00242456
V        1.54246330       1.51314373       7.29165138      -8.94617836      -0.00231412      -0.00139929      -0.00261663
V        0.00291387       0.00102134       8.78832859      -9.61475320      -0.00145271      -0.00118407       0.00173082
V        1.47269039       1.46080089      10.29210523      -9.44392384       0.00385928       0.00506920       0.00018682
V       -0.00828699       2.93977689      -0.00560572      -9.59291506       0.00268374      -0.00067552      -0.00036492
V        1.47781351       4.39962777       1.48432354     -10.06190753       0.00431299      -0.00113725      -0.00169041
V        0.03790654       2.94267609       2.93525868      -9.40722958       0.00014183      -0.00022133      -0.00014843
V        1.51822095       4.35452923       4.43275050      -9.58863582      -0.00492978       0.00417083      -0.00082165
V       -0.04099468       2.92767272       5.87054128      -9.08919740       0.00192537      -0.00053805      -0.00014157
V        1.51833060       4.37055190       7.27515762      -9.17111332      -0.00706372      -0.00010097       0.00193977
V        0.00716586       5.86314039      -0.00453776      -9.52628408       0.00184929      -0.00197437      -0.00043954
V        1.46645548       7.33879345       1.47605773      -9.48284175       0.00029232      -0.00042578      -0.00112693
V        0.02438345       5.85545862       2.93336794      -9.33920512      -0.00085370       0.00216637      -0.00193074
V        1.46721360       7.34055552       4.39540117      -9.44888471       0.00360788       0.00065348       0.00284669
V        0.02982028       5.84921842       5.86903231      -9.25377560       0.00018939       0.00066523      -0.00111447
V        1.46194286       7.34391650       7.35372542      -9.72605543       0.00243561       0.00217916      -0.00213009
V        0.01576464       5.83813592       8.80914013      -9.85298429      -0.00034585       0.00042337       0.00315707
V        1.46884644       7.34686481      10.26903002      -9.86900506      -0.00005670      -0.00036967       0.00096457
V       -0.00821301       8.78705876       0.00587703      -9.29276733       0.00021526       0.00054082      -0.00109198
V        1.45467607      10.26158097       1.48490712      -9.19410375      -0.00017505      -0.00038872      -0.00113255
V        1.46930118      10.24713252       4.37994242      -9.02464952       0.00375501      -0.00323319       0.00213541
V        0.03429420       8.81845440       5.87741694      -9.28062248       0.00010222      -0.00046253       0.00135780
V        1.47042263      10.24456390       7.36850321      -9.56364994       0.00295232      -0.00430566      -0.00218223
V        2.93739919       0.01224807      -0.00383001      -9.10750169      -0.00039151       0.00240969       0.00026410
V        4.39793690       1.47642670       1.47598915      -9.44529162      -0.00430359       0.00383993       0.00123602
V        4.34708338       1.51424309       4.43440228      -9.21646212      -0.00058330       0.00102369       0.00568430
V        2.92916686      -0.05782243       5.88973905      -8.79327325       0.00092990       0.00069111      -0.00087449
V        4.36232217       1.49973352       7.29958065      -8.80549847       0.00458635      -0.00454619       0.00005696
V        2.93392400       0.00641861       8.79146699      -9.16080066      -0.00097514      -0.00081934       0.00011243
V        4.39943449       1.46559335      10.28179356      -9.16005024      -0.00271800       0.00256125       0.00305810
V        2.93419856       2.94280349       0.00274689      -9.84584217       0.00165807      -0.00035678       0.00188079
V        4.40907626       4.41051394       1.46906545     -10.24209499      -0.00318151      -0.00112948      -0.00174487
V        4.35751476       4.36633375       4.41952630      -9.65339727       0.00521715       0.00789225      -0.00313533
V        4.36056899       4.35675782       7.29727695      -9.05458842       0.00268125      -0.00037630      -0.00360653
V        2.92495462       2.95177473       8.86285247      -9.30805752      -0.00223073       0.00025091       0.00367759
V        4.42177362       4.41708271      10.28799693      -9.75209023      -0.00302123      -0.00359509       0.00019615
V        2.92455092       5.87007671       0.00129127      -9.99458811       0.00029397      -0.00212024      -0.00001187
V        4.40708660       7.32936637       1.46045982      -9.77710548       0.00060595       0.00058535      -0.00135362
V        4.40410646       7.33927239       4.40247340      -9.59666298      -0.00351053       0.00070162       0.00208285
V        2.93764145       5.91544195       5.86452929      -9.50236935       0.00028515       0.00302107      -0.00233333
V        2.93418725       5.85590385       8.79772249      -9.95594375       0.00008634      -0.00103900      -0.00122624
V        4.39645456       7.32479970      10.27338105      -9.74705619      -0.00028619      -0.00024925      -0.00016596
V        2.94862143       8.78239890       0.00300372      -9.22850644      -0.00027013      -0.00035643      -0.00092350
V        4.39225366      10.27155095       1.47362894      -9.01060717      -0.00009070       0.00022404      -0.00065780
V        2.95579510       8.77033912       2.94329812      -9.21788517      -0.00042535       0.00016754       0.00034223
V        4.40917498      10.26655948       4.40822670      -9.00473280      -0.00385915      -0.00176197       0.00243275
V        2.94529772       8.79225163       5.88459500      -9.53339824      -0.00144731      -0.00132631      -0.00168118
V        4.40299944      10.26411182       7.35282750      -9.24606495      -0.00229712      -0.00438028      -0.00149540
V        2.94463599       8.79204535       8.80357148      -9.74233301      -0.00039634       0.00041774      -0.00022710
V        5.85930597      -0.01150615       0.01517233      -9.08139656      -0.00117858       0.00124381       0.00109593
V        7.32824181       1.47760667       1.47870618      -9.10803547       0.00014332      -0.00130045      -0.00261440
V        5.86993639       0.00624222       2.94917907      -9.03793782      -0.00065352       0.00056677      -0.00066892
V        7.32937165       1.46774367       4.40441255      -9.08320095       0.00140697       0.00186055       0.00163228
V        5.84769656       0.01196186       5.87205634      -8.98191971       0.00031224       0.00020208       0.00093323
V        5.84562159      -0.01239246       8.79907897      -9.18465284       0.00265281      -0.00291052       0.00367283
V        5.85772769       2.94142391       0.01713987      -9.37315701      -0.00318308      -0.00018961      -0.00089091
V        7.32565646       4.39064337       1.47555413      -9.43685794       0.00076248      -0.00000681      -0.00232475
V        5.85615257       2.93866120       2.95170588      -9.33888776      -0.00001105       0.00109520      -0.00059916
V        7.32008169       4.39073957       4.38095078      -9.08410175       0.00245266      -0.00142222       0.00013688
V        5.90757842       2.93259625       5.87981378      -8.87123440       0.00003448       0.00160752       0.00372728
V        5.83263663       2.94043566       8.79717359      -9.13986043       0.00022292       0.00097190      -0.00066183
V        7.31999683       4.40746602      10.28248967      -9.52137047      -0.00005481      -0.00027706       0.00047939
V        7.31974287       7.32913134       1.47505187      -9.35176193       0.00045488      -0.00021112      -0.00007365
V        5.85622268       5.86799884       2.95207648      -9.67084932       0.00129019       0.00179187      -0.00396096
V        7.32495448       7.36276677       4.38868292      -9.17094490       0.00091398       0.00174988       0.00056043
V        5.83516925       5.85357469       5.86475033      -9.56646826      -0.00012219       0.00037793      -0.00005250
V        7.30244890       7.33270073       7.33197305      -9.36934257      -0.00018266       0.00078909       0.00120978
V        5.85706982       5.86767415       8.80331457      -9.71042929      -0.00017529       0.00098993       0.00074547
V        7.32494908       7.32775456      10.26613441      -9.46959181      -0.00033904      -0.00114607      -0.00068237
V        7.32346716      10.27761401       1.47590882      -8.99378056      -0.00010015       0.00060201       0.00125200
V        5.86243520       8.79662107       2.92696956      -9.06125292      -0.00106939       0.00110196       0.00139655
V        7.33324041      10.26322327       4.39835943      -9.05790293      -0.00057981      -0.00037926       0.00065689
V        5.84699802       8.80442162       5.86196958      -9.37236181      -0.00103299       0.00051918       0.00004852
V        7.31965453      10.26612046       7.29882663      -9.21890001      -0.00014534      -0.00145095       0.00094374
V        5.86894397       8.79525740       8.81425995      -9.46968463      -0.00166686      -0.00180586      -0.00111912
V        7.31221323      10.26926535      10.29873838      -9.16463809      -0.00003146       0.00043674      -0.00014583
V        8.80269475      -0.01134020       0.00733381      -9.21464400       0.00053408       0.00138495      -0.00023575
V        8.78305411      -0.00211409       2.92302195      -9.06539437      -0.00100057       0.00094419       0.00193654
V        8.80397217       0.00690606       5.87085553      -9.21841439      -0.00080044      -0.00064677       0.00117665
V       10.25954561       1.47562181       7.33867749      -9.29535363      -0.00169690       0.00345612      -0.00302170
V       10.27691095       1.46897044      10.29704805      -9.38354910       0.00020681       0.00003451       0.00140596
V        8.80384875       2.94695816       0.01722010      -9.19083453      -0.00025653      -0.00072619      -0.00054006
V       10.27534616       4.39030144       1.47072574      -9.04363492       0.00019907      -0.00003218      -0.00192889
V        8.78698419       2.92226660       5.87977428      -9.30339286      -0.00022555      -0.00099206       0.00026609
V       10.25586889       4.39864013       7.33635895      -9.27112002      -0.00156144      -0.00347304      -0.00142772
V        8.80699546       2.95009150       8.81671369      -9.34224815       0.00083487      -0.00032834      -0.00079407
V       10.25923863       4.40920599      10.28450302      -9.40434004       0.00073092       0.00043842       0.00060156
V       10.29156748       7.34700941       1.47679051      -8.97264640       0.00105009      -0.00047191       0.00146133
V        8.79779251       5.85706650       2.91858107      -9.15215700       0.00018596      -0.00136446       0.00143667
V       10.28809158       7.36560152       4.37575150      -9.17960494      -0.00064911       0.00057282       0.00175801
V        8.79754838       5.86394763       8.82900600      -9.24075045       0.00010323      -0.00166399      -0.00038481
V       10.30415530       7.32573848      10.27333281      -9.48799281       0.00140261      -0.00129798      -0.00063697
V        8.78822519       8.79899457      -0.00848156      -9.13669846       0.00113823       0.00029319       0.00101698
V       10.27532335      10.27134692       1.47770503      -9.06500666       0.00031710       0.00077941       0.00134717
V        8.77436515       8.80023919       2.89941651      -9.02079903      -0.00000753      -0.00020819       0.00219253
V       10.24653110      10.23443445       4.38675063      -9.21519899      -0.00102229      -0.00011904       0.00048924
V       10.28225498      10.23496202       7.32673597      -9.64511347      -0.00027064      -0.00105508       0.00039010
V       10.29686077      10.26251118      10.28828756      -9.65890153       0.00159786       0.00035771      -0.00002050
W        1.47960360       4.40852519      10.29004060      -6.78683124       0.00177915      -0.00352924       0.00009434
W       -0.01231314       8.78572707       8.80246505      -6.80914505       0.00168477       0.00052308      -0.00092079
W        2.95427069       2.94720677       2.88017371      -6.92680936       0.00105420      -0.00007491      -0.00633387
W        2.94504556       5.87205633       2.94373523      -7.01624680       0.00091607       0.00173698      -0.00037289
W        4.39581967       7.33691134       7.33957973      -6.67520557      -0.00134038       0.00312060      -0.00153790
W        5.87671082       5.87320902       0.00987188      -6.58782582      -0.00150288      -0.00212450      -0.00084639
Zr      -0.00745126       8.79801937       2.93734083      -7.95012072       0.00109149       0.00016236       0.00130537
Zr       2.94062390       0.00584616       2.94614941      -8.13841346       0.00011477       0.00207806       0.00354975
Zr       8.79464411       8.81547001       5.82927526      -8.13224761      -0.00103755      -0.00034841       0.00102334
