127
Lattice="12.123038219 -0.015476755 0.012330929 -0.015489709 12.161392244 -0.018048251 0.012330998 -0.018049107 12.150357743" Properties=species:S:1:pos:R:3:forces:R:3 stress="0.0029682058383959163 -0.0002199632646143778 -0.00013681388003936102 -0.0002199632646143778 0.0034234927215834703 -0.00013967873272814144 -0.00013681388003936102 -0.00013967873272814144 0.0035032654497213845" free_energy=-1144.25205214 energy=-1144.23687357 pbc="T T T"
Cr       0.02258000       3.00750000       9.08805000       0.00050800      -0.00002500       0.00056400
Cr       1.51969000      10.63727000      10.58035000       0.00051700      -0.00035700      -0.00020600
Cr       7.60202000       1.50666000      10.62384000       0.00045100      -0.00004700      -0.00008000
Cr      10.60412000       1.54912000       4.55889000      -0.00028100       0.00006800       0.00048700
Cr       9.09825000      -0.00107000       9.17152000       0.00017200      -0.00021300       0.00028500
Cr       9.06164000       6.09000000       6.01620000       0.00048300       0.00024100       0.00047400
Ti      12.12233000       0.01659000       6.07160000      -0.00000000      -0.00022200      -0.00027300
Ti       4.53733000      10.65330000      10.57722000       0.00039100      -0.00015100      -0.00046500
Ti       7.57652000       1.54980000       7.61611000       0.00006700      -0.00027100       0.00043300
Ti       7.79917000       4.53556000       7.53881000       0.00007100      -0.00023100       0.00022900
Ti       6.10602000       9.09138000      -0.00122000      -0.00053700       0.00063800       0.00003000
Ti      10.57475000       1.49342000       1.42373000      -0.00011000       0.00026700      -0.00008200
Ti       9.01256000       3.01755000       3.06409000      -0.00057800       0.00008800       0.00003100
Ti      10.60274000       4.59468000       4.61975000      -0.00009300      -0.00007400       0.00044300
Ti       9.10289000       6.01038000      12.15056000       0.00018800       0.00001000       0.00015300
Ti      10.66398000       7.39576000       7.61382000       0.00067800      -0.00037200      -0.00002600
Ti       9.05091000       9.10556000       9.16789000       0.00090300      -0.00029000       0.00045200
V       12.11678000      12.08987000      12.03548000       0.00019800       0.00007900      -0.00004900
V        1.40342000       1.57837000       1.38370000      -0.00061000      -0.00000400      -0.00039800
V       12.02477000       0.06896000       3.08455000       0.00011900      -0.00003100      -0.00013800
V        1.52860000       1.66763000       4.63084000      -0.00044900       0.00011300       0.00025600
V        1.54347000       1.57255000       7.65459000      -0.00016300      -0.00039400      -0.00002300
V        0.01612000       0.00867000       9.10526000       0.00032200       0.00000600       0.00009200
V        1.46083000       1.51567000      10.55330000      -0.00007800       0.00011900      -0.00001800
V       12.12784000       3.03188000      12.12068000       0.00020000       0.00017600      -0.00025700
V        1.49217000       4.56405000       1.48938000      -0.00007300       0.00028300       0.00034800
V       12.10767000       3.02082000       3.04265000      -0.00013400       0.00024000       0.00024300
V        1.52796000       4.56398000       4.58510000       0.00032900       0.00030300      -0.00060200
V        0.05476000       2.98230000       6.07956000      -0.00008500      -0.00003200       0.00026400
V        1.43899000       4.51708000       7.60621000       0.00081500      -0.00059000       0.00036000
V       12.10356000       6.06999000       0.01939000       0.00015200      -0.00016400      -0.00027000
V        1.55764000       7.54786000       1.44806000      -0.00007200       0.00034800      -0.00052200
V       -0.00029000       6.07172000       2.98720000      -0.00016800       0.00044900       0.00038200
V        1.60010000       7.51714000       4.64548000      -0.00084500       0.00040500      -0.00003200
V        0.15901000       6.03889000       6.08627000      -0.00009300      -0.00031100       0.00050500
V        1.55658000       7.54016000       7.61290000       0.00018000       0.00007400       0.00017500
V        0.07724000       6.02763000       9.15142000       0.00073300      -0.00056600      -0.00014800
V        1.55233000       7.56961000      10.63117000       0.00074700      -0.00025600       0.00007500
V       12.12275000       9.09719000      12.12744000       0.00071200      -0.00015600      -0.00007500
V        1.50813000      10.58680000       1.27165000       0.00009600       0.00020600      -0.00012000
V        1.60896000      10.51231000       4.79753000      -0.00008500      -0.00019900       0.00026300
V        0.08423000       9.11026000       6.09944000      -0.00017400      -0.00016500      -0.00018200
V        1.56409000      10.62025000       7.61978000      -0.00029000      -0.00002500      -0.00021600
V        2.95697000      -0.01257000      12.08375000       0.00025400      -0.00035500      -0.00034200
V        4.59078000       1.53818000       1.44074000      -0.00023800       0.00021200      -0.00004900
V        4.61002000       1.58732000       4.65000000      -0.00061500       0.00025100      -0.00009600
V        3.05735000       0.00929000       6.14937000      -0.00013800      -0.00030500      -0.00011900
V        4.53608000       1.41598000       7.61157000      -0.00011700       0.00025600      -0.00057500
V        2.98656000       0.00332000       9.09609000       0.00051500      -0.00044800       0.00021000
V        4.51889000       1.49066000      10.59939000       0.00008700       0.00022900      -0.00029300
V        3.02504000       2.97644000      12.08538000       0.00020700      -0.00028700       0.00032600
V        4.53933000       4.52471000       1.50522000      -0.00058000       0.00034000       0.00031300
V        4.58191000       4.55504000       4.49116000      -0.00070700       0.00027000      -0.00047800
V        3.08708000       3.12834000       6.18015000      -0.00002400      -0.00025000      -0.00031400
V        3.12900000       5.93894000       6.16819000       0.00009700      -0.00009500      -0.00020600
V        3.12192000       3.07558000       8.99992000       0.00032700      -0.00003500      -0.00006600
V        4.52787000       4.49800000      10.68490000       0.00045000      -0.00022600      -0.00029200
V        3.01971000       6.05626000      12.11422000       0.00017100      -0.00008600       0.00027600
V        4.51531000       7.58675000       1.54772000       0.00018700       0.00086500      -0.00052900
V        4.59736000       7.56688000       4.55149000       0.00019900       0.00055000       0.00010600
V        3.10752000       5.98699000       9.04647000       0.00047800      -0.00048100      -0.00020200
V        4.49277000       7.54949000      10.60213000       0.00007000      -0.00023100      -0.00044300
V        2.99667000       9.07826000      12.11715000       0.00042000       0.00021200      -0.00034000
V        4.51869000      10.59404000       1.45012000      -0.00058300       0.00021000      -0.00018400
V        3.08641000       9.06570000       3.03603000       0.00001100       0.00109300      -0.00015000
V        4.61909000      10.53754000       4.62995000      -0.00054900       0.00069900      -0.00057000
V        3.06895000       9.05038000       6.10425000      -0.00019700       0.00041900      -0.00029900
V        4.56614000      10.63534000       7.61783000       0.00007800       0.00028200       0.00004200
V        3.01439000       9.07550000       9.11856000       0.00048500       0.00022400      -0.00018400
V        6.10370000       0.02500000      12.15644000       0.00014500      -0.00016100      -0.00007600
V        7.52095000       1.46872000       1.50515000      -0.00016500       0.00001300      -0.00015300
V        6.05743000      -0.00781000       3.03017000      -0.00065300       0.00026900       0.00007200
V        7.48435000       1.49364000       4.61304000      -0.00030700       0.00024900       0.00060200
V        6.01198000      12.14253000       6.05422000      -0.00036200      -0.00036400      -0.00047600
V        6.09122000       0.08472000       9.18203000      -0.00006000      -0.00040700       0.00011000
V        6.06276000       2.96489000      12.09100000       0.00013000      -0.00002600       0.00002900
V        7.47025000       4.53604000       1.55234000      -0.00068000       0.00028200      -0.00015600
V        6.09356000       3.01960000       3.07282000      -0.00020600      -0.00011900       0.00042200
V        7.57112000       4.59420000       4.63363000      -0.00051400      -0.00029300       0.00003800
V        5.85283000       3.18622000       6.20602000      -0.00023700       0.00013500       0.00007100
V        5.91906000       3.11593000       9.04958000      -0.00012700       0.00038900      -0.00024800
V        7.53767000       4.46675000      10.56815000       0.00025500      -0.00042000      -0.00001800
V        7.57571000       7.59997000       1.60676000      -0.00052400       0.00028100       0.00016000
V        6.09545000       6.07694000       3.07352000      -0.00001800       0.00006900       0.00007100
V        7.55608000       7.54785000       4.51327000      -0.00040600       0.00016200       0.00019300
V        5.99614000       5.99982000       6.08429000      -0.00024200       0.00025700      -0.00010900
V        7.57298000       7.40267000       7.55884000       0.00021500      -0.00001000       0.00005900
V        5.97591000       5.91385000       9.03151000       0.00017400       0.00014900      -0.00040100
V        7.51380000       7.50477000      10.57530000       0.00013400       0.00017200       0.00004500
V        7.57698000      10.66316000       1.52227000      -0.00072400       0.00020900      -0.00002500
V        6.04668000       9.11235000       3.02084000      -0.00041700       0.00060200       0.00010500
V        7.47367000      10.71000000       4.45816000      -0.00098900       0.00009900       0.00046400
V        6.08074000       9.09192000       6.04830000      -0.00040400       0.00036300      -0.00006300
V        7.52018000      10.83179000       7.67724000       0.00017300       0.00003900       0.00052000
V        6.12990000       9.06075000       9.09284000       0.00007100       0.00016100      -0.00018600
V        7.58219000      10.73096000      10.62135000       0.00041900       0.00010400      -0.00005100
V        9.02870000      -0.02241000      12.11156000       0.00008100      -0.00009600       0.00016300
V        9.02855000       0.01333000       3.03887000      -0.00080900       0.00023300      -0.00018500
V        9.11495000       0.07243000       6.02979000      -0.00026000      -0.00014900       0.00007400
V       10.60561000       1.53455000       7.68836000       0.00000200      -0.00009200       0.00011700
V       10.60137000       1.48719000      10.59653000      -0.00014900      -0.00003100      -0.00015000
V        9.00032000       3.00512000      12.09205000      -0.00035400      -0.00031100      -0.00008300
V       10.67687000       4.52988000       1.53853000       0.00006700       0.00035900      -0.00001600
V        9.21509000       2.86690000       5.97391000       0.00013200      -0.00010500      -0.00012100
V       10.69752000       4.45160000       7.63133000       0.00040900      -0.00071000       0.00022400
V        9.14166000       2.96944000       9.23913000       0.00052000      -0.00040700       0.00049100
V       10.65050000       4.44736000      10.58678000       0.00032900      -0.00055900       0.00000600
V       10.57952000       7.57143000       1.48750000      -0.00010500       0.00004600      -0.00027600
V        9.05595000       6.08142000       2.97255000      -0.00044100       0.00011300       0.00010900
V       10.55948000       7.38153000       4.60814000       0.00033400      -0.00002100       0.00022800
V        9.09107000       6.05674000       9.26328000       0.00076400      -0.00017000       0.00015100
V       10.69928000       7.56654000      10.64516000       0.00060100      -0.00036000      -0.00032500
V        9.07409000       9.12543000       0.01245000      -0.00004400       0.00006900       0.00033200
V       10.51946000      10.71816000       1.42613000      -0.00004800      -0.00004100      -0.00040500
V        9.03655000       9.13972000       2.97884000      -0.00078400       0.00052400       0.00003300
V       10.49132000      10.82002000       4.42410000      -0.00025600       0.00066200      -0.00007700
V       10.61676000      10.81781000       7.75102000      -0.00006400      -0.00003900       0.00003500
V       10.57134000      10.68341000      10.65216000       0.00025400      -0.00006500       0.00013800
W        1.53083000       4.51039000      10.59431000      -0.00054600      -0.00108900      -0.00068900
W        0.03185000       9.14332000       9.14022000       0.00064000      -0.00043000      -0.00048100
W        3.03179000       3.02569000       3.02404000      -0.00065200       0.00260600      -0.00001900
W        3.03868000       6.08046000       3.04657000      -0.00060000      -0.00353800       0.00013500
W        4.57635000       7.61677000       7.58748000       0.00163400       0.00029500       0.00043100
W        6.05496000       6.04603000      12.13986000       0.00034000      -0.00045100       0.00062700
Zr       0.00107000       9.16290000       3.07128000      -0.00004400      -0.00002400       0.00033800
Zr       2.93275000      12.09837000       3.05030000      -0.00053100      -0.00111800      -0.00017300
Zr       9.13483000       9.20290000       6.06667000       0.00049400       0.00040800       0.00046900
