 vasp.6.4.2 20Jul23 (build Sep 20 2024 16:56:05) complex                         
 executed on              LinuxNV date 2025.04.25  13:39:16
 running    4 mpi-ranks, with    8 threads/rank, on    1 nodes
 distrk:  each k-point on    4 cores,    1 groups
 distr:  one band on NCORE=   1 cores,    4 groups
 OpenACC runtime initialized ...    4 GPUs detected


--------------------------------------------------------------------------------------------------------


 INCAR:
   ENCUT = 520.000000
   POTIM = 0.200000
   SIGMA = 0.200000
   EDIFF = 1.00e-06
   EDIFFG = -1.00e-02
   ALGO = Normal
   GGA = PE
   PREC = Accurate
   IBRION = 2
   ISIF = 2
   ISMEAR = 1
   LORBIT = 11
   NELM = 100
   NSW = -1
   LCHARG = .TRUE.
   LWAVE = .FALSE.
   LREAL = .FALSE.

 POTCAR:    PAW_PBE Cr_pv 02Aug2007               
 POTCAR:    PAW_PBE Ti_pv 07Sep2000               
 POTCAR:    PAW_PBE V_pv 07Sep2000                
 POTCAR:    PAW_PBE W_sv 04Sep2015                
 POTCAR:    PAW_PBE Zr_sv 04Jan2005               
 POTCAR:    PAW_PBE Cr_pv 02Aug2007               
   SHA256 =  c9a7df34d3cdbacf1090e328ef39c0b420964e11c23f63548d1ac9dd218cdba0 Cr_pv/POTCAR          
   COPYR  = (c) Copyright 02Aug2007 Georg Kresse                                                    
   COPYR  = This file is part of the software VASP. Any use, copying, and all other rights are regul
   COPYR  = If you do not have a valid VASP license, you may not use, copy or distribute this file. 
   VRHFIN =Cr : p6d5s1                                                                              
   LEXCH  = PE                                                                                      
   EATOM  =  1647.9177 eV,  121.1185 Ry                                                             
                                                                                                    
   TITEL  = PAW_PBE Cr_pv 02Aug2007                                                                 
   LULTRA =        F    use ultrasoft PP ?                                                          
   IUNSCR =        1    unscreen: 0-lin 1-nonlin 2-no                                               
   RPACOR =    2.080    partial core radius                                                         
   POMASS =   51.996; ZVAL   =   12.000    mass and valenz                                          
   RCORE  =    2.300    outmost cutoff radius                                                       
   RWIGS  =    2.500; RWIGS  =    1.323    wigner-seitz radius (au A)                               
   ENMAX  =  265.681; ENMIN  =  199.261 eV                                                          
   ICORE  =        3    local potential                                                             
   LCOR   =        T    correct aug charges                                                         
   LPAW   =        T    paw PP                                                                      
   EAUG   =  519.424                                                                                
   DEXC   =    0.000                                                                                
   RMAX   =    2.356    core radius for proj-oper                                                   
   RAUG   =    1.300    factor for augmentation sphere                                              
   RDEP   =    2.447    radius for radial grids                                                     
   RDEPT  =    1.882    core radius for aug-charge                                                  
                                                                                                    
   Atomic configuration                                                                             
    8 entries                                                                                       
     n  l   j            E        occ.                                                              
     1  0  0.50     -5880.4963   2.0000                                                             
     2  0  0.50      -667.0865   2.0000                                                             
     2  1  1.50      -560.6250   6.0000                                                             
     3  0  0.50       -73.9860   2.0000                                                             
     3  1  1.50       -45.4378   6.0000                                                             
     3  2  2.50        -2.9137   5.0000                                                             
     4  0  0.50        -4.0071   1.0000                                                             
     4  3  2.50        -1.3606   0.0000                                                             
   Description                                                                                      
     l       E           TYP  RCUT    TYP  RCUT                                                     
     1    -45.4377911     23  2.000                                                                 
     1      1.3605826     23  2.000                                                                 
     2     -2.9136672     23  2.300                                                                 
     2     -4.2742498     23  2.300                                                                 
     0     -4.0071320     23  2.300                                                                 
     0      9.4498803     23  2.300                                                                 
     3      2.7211652     23  2.300                                                                 
  local pseudopotential read in
  partial core-charges read in
  partial kinetic energy density read in
  atomic valenz-charges read in
  non local Contribution for L=            1  read in
    real space projection operators read in
  non local Contribution for L=            1  read in
    real space projection operators read in
  non local Contribution for L=            2  read in
    real space projection operators read in
  non local Contribution for L=            2  read in
    real space projection operators read in
  non local Contribution for L=            0  read in
    real space projection operators read in
  non local Contribution for L=            0  read in
    real space projection operators read in
    PAW grid and wavefunctions read in
 
   number of l-projection  operators is LMAX  =            6
   number of lm-projection operators is LMMAX =           18
 
 POTCAR:    PAW_PBE Ti_pv 07Sep2000               
   SHA256 =  f757a1b2c6d082f4c628fa3d987464a8763bf92e53844ac0500b0e2ddc9ce5c0 Ti_pv/POTCAR          
   COPYR  = (c) Copyright 07Sep2000 Georg Kresse                                                    
   COPYR  = This file is part of the software VASP. Any use, copying, and all other rights are regul
   COPYR  = If you do not have a valid VASP license, you may not use, copy or distribute this file. 
   VRHFIN =Ti: d3 s1                                                                                
   LEXCH  = PE                                                                                      
   EATOM  =  1042.5995 eV,   76.6289 Ry                                                             
                                                                                                    
   TITEL  = PAW_PBE Ti_pv 07Sep2000                                                                 
   LULTRA =        F    use ultrasoft PP ?                                                          
   IUNSCR =        1    unscreen: 0-lin 1-nonlin 2-no                                               
   RPACOR =    2.200    partial core radius                                                         
   POMASS =   47.880; ZVAL   =   10.000    mass and valenz                                          
   RCORE  =    2.500    outmost cutoff radius                                                       
   RWIGS  =    2.500; RWIGS  =    1.323    wigner-seitz radius (au A)                               
   ENMAX  =  222.335; ENMIN  =  166.751 eV                                                          
   RCLOC  =    1.701    cutoff for local pot                                                        
   LCOR   =        T    correct aug charges                                                         
   LPAW   =        T    paw PP                                                                      
   EAUG   =  482.848                                                                                
   DEXC   =    0.000                                                                                
   RMAX   =    2.564    core radius for proj-oper                                                   
   RAUG   =    1.300    factor for augmentation sphere                                              
   RDEP   =    2.538    radius for radial grids                                                     
   RDEPT  =    1.952    core radius for aug-charge                                                  
                                                                                                    
   Atomic configuration                                                                             
    8 entries                                                                                       
     n  l   j            E        occ.                                                              
     1  0  0.50     -4865.3608   2.0000                                                             
     2  0  0.50      -533.1368   2.0000                                                             
     2  1  1.50      -440.5031   6.0000                                                             
     3  0  0.50       -59.3186   2.0000                                                             
     3  1  1.50       -35.7012   6.0000                                                             
     3  2  2.50        -1.9157   3.0000                                                             
     4  0  0.50        -3.7291   1.0000                                                             
     4  3  2.50        -1.3606   0.0000                                                             
   Description                                                                                      
     l       E           TYP  RCUT    TYP  RCUT                                                     
     1    -35.7012140     23  2.300                                                                 
     1     -1.3605826     23  2.300                                                                 
     2     -1.9156996     23  2.500                                                                 
     2     -0.4063033     23  2.500                                                                 
     0     -3.7290856     23  2.500                                                                 
     0     20.4087390     23  2.500                                                                 
  local pseudopotential read in
  partial core-charges read in
  partial kinetic energy density read in
  atomic valenz-charges read in
  non local Contribution for L=            1  read in
    real space projection operators read in
  non local Contribution for L=            1  read in
    real space projection operators read in
  non local Contribution for L=            2  read in
    real space projection operators read in
  non local Contribution for L=            2  read in
    real space projection operators read in
  non local Contribution for L=            0  read in
    real space projection operators read in
  non local Contribution for L=            0  read in
    real space projection operators read in
    PAW grid and wavefunctions read in
 
   number of l-projection  operators is LMAX  =            6
   number of lm-projection operators is LMMAX =           18
 
 POTCAR:    PAW_PBE V_pv 07Sep2000                
   SHA256 =  1175d3c8cb4ffd1d150a520fa74fae5c3ec72c0849b5615a94a5372dd2cf07f7 V_pv/POTCAR           
   COPYR  = (c) Copyright 07Sep2000 Georg Kresse                                                    
   COPYR  = This file is part of the software VASP. Any use, copying, and all other rights are regul
   COPYR  = If you do not have a valid VASP license, you may not use, copy or distribute this file. 
   VRHFIN =V: p6 d4 s1                                                                              
   LEXCH  = PE                                                                                      
   EATOM  =  1321.6206 eV,   97.1364 Ry                                                             
                                                                                                    
   TITEL  = PAW_PBE V_pv 07Sep2000                                                                  
   LULTRA =        F    use ultrasoft PP ?                                                          
   IUNSCR =        1    unscreen: 0-lin 1-nonlin 2-no                                               
   RPACOR =    1.700    partial core radius                                                         
   POMASS =   50.941; ZVAL   =   11.000    mass and valenz                                          
   RCORE  =    2.300    outmost cutoff radius                                                       
   RWIGS  =    2.300; RWIGS  =    1.217    wigner-seitz radius (au A)                               
   ENMAX  =  263.673; ENMIN  =  197.755 eV                                                          
   RCLOC  =    1.779    cutoff for local pot                                                        
   LCOR   =        T    correct aug charges                                                         
   LPAW   =        T    paw PP                                                                      
   EAUG   =  598.473                                                                                
   DEXC   =    0.000                                                                                
   RMAX   =    2.359    core radius for proj-oper                                                   
   RAUG   =    1.300    factor for augmentation sphere                                              
   RDEP   =    2.430    radius for radial grids                                                     
   RDEPT  =    1.700    core radius for aug-charge                                                  
                                                                                                    
   Atomic configuration                                                                             
    8 entries                                                                                       
     n  l   j            E        occ.                                                              
     1  0  0.50     -5360.7193   2.0000                                                             
     2  0  0.50      -598.4546   2.0000                                                             
     2  1  1.50      -499.0155   6.0000                                                             
     3  0  0.50       -66.5711   2.0000                                                             
     3  1  1.50       -40.5282   6.0000                                                             
     3  2  2.50        -2.4291   4.0000                                                             
     4  0  0.50        -3.8743   1.0000                                                             
     4  3  2.50        -1.3606   0.0000                                                             
   Description                                                                                      
     l       E           TYP  RCUT    TYP  RCUT                                                     
     1    -40.5282431     23  2.000                                                                 
     1      5.4423304     23  2.000                                                                 
     2     -2.4290905     23  2.300                                                                 
     2     -1.0472488     23  2.300                                                                 
     0     -3.8742754     23  2.300                                                                 
     0     27.2116520     23  2.300                                                                 
  local pseudopotential read in
  partial core-charges read in
  partial kinetic energy density read in
  atomic valenz-charges read in
  non local Contribution for L=            1  read in
    real space projection operators read in
  non local Contribution for L=            1  read in
    real space projection operators read in
  non local Contribution for L=            2  read in
    real space projection operators read in
  non local Contribution for L=            2  read in
    real space projection operators read in
  non local Contribution for L=            0  read in
    real space projection operators read in
  non local Contribution for L=            0  read in
    real space projection operators read in
    PAW grid and wavefunctions read in
 
   number of l-projection  operators is LMAX  =            6
   number of lm-projection operators is LMMAX =           18
 
 POTCAR:    PAW_PBE W_sv 04Sep2015                
   SHA256 =  931c2d770f65867ef30f3db3421922900fc0890ebac5c3e12f63b6a2064023d7 W_sv/POTCAR           
   COPYR  = (c) Copyright 04Sep2015 Georg Kresse                                                    
   COPYR  = This file is part of the software VASP. Any use, copying, and all other rights are regul
   COPYR  = If you do not have a valid VASP license, you may not use, copy or distribute this file. 
   VRHFIN =W : 5p6s5d                                                                               
   LEXCH  = PE                                                                                      
   EATOM  =  1865.5791 eV,  137.1162 Ry                                                             
                                                                                                    
   TITEL  = PAW_PBE W_sv 04Sep2015                                                                  
   LULTRA =        F    use ultrasoft PP ?                                                          
   IUNSCR =        1    unscreen: 0-lin 1-nonlin 2-no                                               
   RPACOR =    2.330    partial core radius                                                         
   POMASS =  183.850; ZVAL   =   14.000    mass and valenz                                          
   RCORE  =    2.500    outmost cutoff radius                                                       
   RWIGS  =    2.750; RWIGS  =    1.455    wigner-seitz radius (au A)                               
   ENMAX  =  223.057; ENMIN  =  167.293 eV                                                          
   ICORE  =        3    local potential                                                             
   LCOR   =        T    correct aug charges                                                         
   LPAW   =        T    paw PP                                                                      
   EAUG   =  373.438                                                                                
   DEXC   =    0.000                                                                                
   RMAX   =    2.565    core radius for proj-oper                                                   
   RAUG   =    1.300    factor for augmentation sphere                                              
   RDEP   =    2.539    radius for radial grids                                                     
   RDEPT  =    2.126    core radius for aug-charge                                                  
                                                                                                    
   Atomic configuration                                                                             
   15 entries                                                                                       
     n  l   j            E        occ.                                                              
     1  0  0.50    -69465.5834   2.0000                                                             
     2  0  0.50    -11986.2640   2.0000                                                             
     2  1  1.50    -10479.8613   6.0000                                                             
     3  0  0.50     -2759.0756   2.0000                                                             
     3  1  1.50     -2313.1855   6.0000                                                             
     3  2  2.50     -1801.1183  10.0000                                                             
     4  0  0.50      -567.6789   2.0000                                                             
     4  1  1.50      -421.4692   6.0000                                                             
     4  2  2.50      -236.3471  10.0000                                                             
     4  3  3.50       -31.2665  14.0000                                                             
     5  0  0.50       -77.1084   2.0000                                                             
     6  0  0.50        -5.1438   1.0000                                                             
     5  1  1.50       -41.3856   6.0000                                                             
     5  2  2.50        -3.3185   5.0000                                                             
     5  3  2.50        -1.3606   0.0000                                                             
   Description                                                                                      
     l       E           TYP  RCUT    TYP  RCUT                                                     
     0    -77.1084470     23  2.100                                                                 
     0     -5.1437956     23  2.300                                                                 
     1    -41.3855615     23  2.500                                                                 
     1     -2.7211652     23  2.500                                                                 
     2     -3.3185025     23  2.500                                                                 
     2     -1.5965151     23  2.500                                                                 
     3     -1.3605826     23  2.500                                                                 
  local pseudopotential read in
  partial core-charges read in
  partial kinetic energy density read in
  kinetic energy density of atom read in
  atomic valenz-charges read in
  non local Contribution for L=            0  read in
    real space projection operators read in
  non local Contribution for L=            0  read in
    real space projection operators read in
  non local Contribution for L=            1  read in
    real space projection operators read in
  non local Contribution for L=            1  read in
    real space projection operators read in
  non local Contribution for L=            2  read in
    real space projection operators read in
  non local Contribution for L=            2  read in
    real space projection operators read in
    PAW grid and wavefunctions read in
 
   number of l-projection  operators is LMAX  =            6
   number of lm-projection operators is LMMAX =           18
 
 POTCAR:    PAW_PBE Zr_sv 04Jan2005               
   SHA256 =  25aed69cb10325f9d37c5c68912b61a17387d1f8e4f1d804860ffa10c8a4bf76 Zr_sv/POTCAR          
   COPYR  = (c) Copyright 04Jan2005 Georg Kresse                                                    
   COPYR  = This file is part of the software VASP. Any use, copying, and all other rights are regul
   COPYR  = If you do not have a valid VASP license, you may not use, copy or distribute this file. 
   VRHFIN =Zr: 4s4p5s4d                                                                             
   LEXCH  = PE                                                                                      
   EATOM  =  1284.2219 eV,   94.3876 Ry                                                             
                                                                                                    
   TITEL  = PAW_PBE Zr_sv 04Jan2005                                                                 
   LULTRA =        F    use ultrasoft PP ?                                                          
   IUNSCR =        1    unscreen: 0-lin 1-nonlin 2-no                                               
   RPACOR =    2.200    partial core radius                                                         
   POMASS =   91.224; ZVAL   =   12.000    mass and valenz                                          
   RCORE  =    2.500    outmost cutoff radius                                                       
   RWIGS  =    3.070; RWIGS  =    1.625    wigner-seitz radius (au A)                               
   ENMAX  =  229.898; ENMIN  =  172.424 eV                                                          
   ICORE  =        3    local potential                                                             
   LCOR   =        T    correct aug charges                                                         
   LPAW   =        T    paw PP                                                                      
   EAUG   =  461.257                                                                                
   DEXC   =    0.000                                                                                
   RMAX   =    2.561    core radius for proj-oper                                                   
   RAUG   =    1.300    factor for augmentation sphere                                              
   RDEP   =    2.597    radius for radial grids                                                     
   RDEPT  =    2.007    core radius for aug-charge                                                  
                                                                                                    
   Atomic configuration                                                                             
   11 entries                                                                                       
     n  l   j            E        occ.                                                              
     1  0  0.50    -17820.0161   2.0000                                                             
     2  0  0.50     -2467.0882   2.0000                                                             
     2  1  1.50     -2199.6095   6.0000                                                             
     3  0  0.50      -402.4863   2.0000                                                             
     3  1  1.50      -315.3675   6.0000                                                             
     3  2  2.50      -172.4472  10.0000                                                             
     4  0  0.50       -52.4146   2.0000                                                             
     5  0  0.50        -3.8421   1.0000                                                             
     4  1  1.50       -30.5054   6.0000                                                             
     4  2  2.50        -2.3341   3.0000                                                             
     4  3  2.50        -1.3606   0.0000                                                             
   Description                                                                                      
     l       E           TYP  RCUT    TYP  RCUT                                                     
     0    -52.4145962     23  2.200                                                                 
     0     -3.8421270     23  2.500                                                                 
     1    -30.5053914     23  2.200                                                                 
     1     20.4087390     23  2.200                                                                 
     2     -2.3340816     23  2.500                                                                 
     2     -0.6120942     23  2.500                                                                 
     3     -4.0817478     23  2.500                                                                 
  local pseudopotential read in
  partial core-charges read in
  partial kinetic energy density read in
  atomic valenz-charges read in
  non local Contribution for L=            0  read in
    real space projection operators read in
  non local Contribution for L=            0  read in
    real space projection operators read in
  non local Contribution for L=            1  read in
    real space projection operators read in
  non local Contribution for L=            1  read in
    real space projection operators read in
  non local Contribution for L=            2  read in
    real space projection operators read in
  non local Contribution for L=            2  read in
    real space projection operators read in
    PAW grid and wavefunctions read in
 
   number of l-projection  operators is LMAX  =            6
   number of lm-projection operators is LMMAX =           18
 
 -----------------------------------------------------------------------------
|                                                                             |
|               ----> ADVICE to this user running VASP <----                  |
|                                                                             |
|     You have a (more or less) 'large supercell' and for larger cells it     |
|     might be more efficient to use real-space projection operators.         |
|     Therefore, try LREAL= Auto in the INCAR file.                           |
|     Mind: For very accurate calculation, you might also keep the            |
|     reciprocal projection scheme (i.e. LREAL=.FALSE.).                      |
|                                                                             |
 -----------------------------------------------------------------------------

  PAW_PBE Cr_pv 02Aug2007               :
 energy of atom  1       EATOM=-1647.9177
 kinetic energy error for atom=    0.0057 (will be added to EATOM!!)
  PAW_PBE Ti_pv 07Sep2000               :
 energy of atom  2       EATOM=-1042.5995
 kinetic energy error for atom=    0.0019 (will be added to EATOM!!)
  PAW_PBE V_pv 07Sep2000                :
 energy of atom  3       EATOM=-1321.6206
 kinetic energy error for atom=    0.0054 (will be added to EATOM!!)
  PAW_PBE W_sv 04Sep2015                :
 energy of atom  4       EATOM=-1865.5791
 kinetic energy error for atom=    0.0026 (will be added to EATOM!!)
  PAW_PBE Zr_sv 04Jan2005               :
 energy of atom  5       EATOM=-1284.2219
 kinetic energy error for atom=    0.0043 (will be added to EATOM!!)
 
 
 POSCAR: Cr Ti V  W  Zr
  positions in cartesian coordinates
  No initial velocities read in
 exchange correlation table for  LEXCH =        8
   RHO(1)=    0.500       N(1)  =     2000
   RHO(2)=  100.500       N(2)  =     4000
 


--------------------------------------------------------------------------------------------------------


 ion  position               nearest neighbor table
   1  0.002  0.403  0.005-  21 2.53  49 2.54  17 2.55  25 2.56  24 2.59  44 2.59 107 2.59  10 2.62
                            48 2.92  45 2.95  26 3.00
   2  0.401  0.005  0.800-   3 2.51  81 2.54  80 2.55  75 2.56  59 2.56  39 2.57  54 2.59  56 2.63
                            84 2.93  55 2.96  38 2.97  60 2.99  76 3.00
   3  0.402  0.198  0.801-  84 2.49   2 2.51  85 2.55  63 2.56  60 2.58  66 2.59  38 2.59  43 2.60
                            81 2.94  39 2.96  42 2.97  59 2.98  88 3.00
   4  0.398  0.605  0.599-  51 2.50  98 2.51  46 2.52  74 2.55  92 2.56  70 2.58  69 2.60   9 2.69
                            50 3.02  97 3.02  75 3.04 119 3.11 118 3.17
   5  0.598  0.397  0.397- 114 2.54  87 2.55  61 2.55  86 2.58 119 2.61 120 2.61  91 2.64 109 2.65
                            82 3.02 110 3.04 121 3.04  65 3.04  92 3.04
   6  0.796  1.000  0.196-  77 2.50  99 2.53  94 2.56  13 2.61 104 2.64 122 2.64 100 2.65 105 2.84
                             7 2.86 115 2.95  76 3.01  14 3.02
   7  0.995  0.203  0.221- 104 2.56  13 2.65  46 2.66  99 2.71  21 2.72  41 2.73  18 2.76  22 2.80
                             6 2.86  17 2.90
   8  0.201  0.805  0.005-  30 2.61  57 2.64  52 2.65  35 2.66  71 2.75  55 2.76  29 2.77  48 2.77
                            34 2.93  36 3.00  72 3.03 123 3.06
   9  0.394  0.397  0.598- 118 2.65  93 2.66 119 2.68  66 2.68  87 2.69  63 2.69   4 2.69  18 2.71
                            70 2.93  92 2.99  62 3.02  46 3.02  42 3.02  88 3.04
  10  0.802  0.204  0.803- 111 2.55 102 2.56   1 2.62  20 2.66 103 2.66  79 2.69 106 2.70  84 2.71
                            24 2.92 107 2.96  17 2.97  83 3.02 101 3.04
  11  0.789  0.586  0.798- 111 2.53  29 2.60  87 2.63 112 2.64  93 2.66 114 2.76 124 2.77  30 2.81
                            88 2.88 110 3.04  25 3.05
  12  0.008  0.014  0.012-  41 2.46  13 2.54  17 2.60  35 2.60  99 2.68  16 2.70  30 2.72 124 2.73

  13  0.992  0.992  0.193- 115 2.51  12 2.54  18 2.59  31 2.61   6 2.61  36 2.63  14 2.64   7 2.65
                            30 2.87 122 2.97
  14  0.999  0.009  0.402- 100 2.58  42 2.60  15 2.60  37 2.60  13 2.64 122 2.65  32 2.72  18 2.77
                            19 2.85   6 3.02
  15  0.001  0.001  0.599-  19 2.59 116 2.60  14 2.60  33 2.61  16 2.61  38 2.61  43 2.62 101 2.62

  16  0.003  0.005  0.801-  20 2.54  40 2.58  15 2.61  39 2.63 117 2.67 102 2.67  12 2.70  34 2.72
                           124 3.02
  17  0.998  0.205  0.001-   1 2.55  45 2.56 102 2.59  12 2.60 103 2.61  20 2.64  40 2.64   7 2.90
                            10 2.97
  18  0.175  0.195  0.398-  13 2.59  42 2.61  37 2.66  41 2.69   9 2.71  46 2.73   7 2.76  14 2.77
                           118 2.81  62 2.84
  19  0.999  0.196  0.593- 106 2.55  15 2.59  42 2.60 100 2.61  47 2.63  23 2.65  20 2.67  14 2.85
                           118 2.89 105 2.89
  20  0.003  0.198  0.798-  16 2.54  24 2.58 101 2.58  43 2.60  44 2.61  17 2.64  10 2.66  19 2.67
                            47 2.91
  21  0.999  0.403  0.197-   1 2.53  26 2.58 108 2.59  45 2.59 103 2.61  50 2.61  22 2.64   7 2.72

  22  0.999  0.400  0.398- 109 2.57  27 2.61  51 2.63  23 2.64  21 2.64  46 2.64 104 2.71   7 2.80
                           105 2.87 118 2.92
  23  0.994  0.399  0.598- 110 2.51 105 2.55 118 2.59  28 2.60  22 2.64  19 2.65  24 2.68 123 2.74
                           106 2.92
  24  0.999  0.395  0.803-  20 2.58   1 2.59 111 2.61 106 2.61  47 2.66  29 2.67  23 2.68  48 2.69
                            10 2.92 123 3.13
  25  0.999  0.596  0.001-   1 2.56  26 2.59  48 2.61 111 2.63 112 2.64  29 2.65  30 2.67  52 2.67
                            11 3.05
  26  0.997  0.601  0.200-  31 2.57  27 2.58  21 2.58 113 2.58  25 2.59 107 2.62  49 2.62  53 2.65
                             1 3.00
  27  0.001  0.601  0.398-  50 2.57  26 2.58  28 2.59  32 2.61  22 2.61 121 2.63 108 2.64  54 2.65

  28  0.001  0.599  0.596-  27 2.59  23 2.60 109 2.61  33 2.63 114 2.64  51 2.66  55 2.66  29 2.66
                           121 3.01 123 3.12
  29  0.989  0.592  0.793- 110 2.53  11 2.60  34 2.61  25 2.65  28 2.66  24 2.67 123 2.76   8 2.77

  30  0.003  0.804  0.011-  31 2.56  36 2.57   8 2.61 115 2.65  25 2.67  12 2.72  34 2.78  11 2.81
                            13 2.87 124 3.08
  31  0.000  0.799  0.204-  30 2.56  32 2.56  26 2.57  52 2.58  37 2.60  13 2.61 122 2.63 112 2.65

  32  0.004  0.802  0.402-  31 2.56  53 2.56  33 2.59  38 2.60  27 2.61 116 2.65 113 2.69  14 2.72
                           121 3.05 122 3.05
  33  0.002  0.802  0.600-  34 2.58  32 2.59  15 2.61  54 2.61 117 2.62  39 2.62  28 2.63 121 2.65
                            55 2.91
  34  0.014  0.801  0.801-  55 2.42  33 2.58  29 2.61  35 2.61  16 2.72 124 2.75  30 2.78 114 2.79
                             8 2.93
  35  0.202  0.008  0.004-  40 2.55  61 2.57  12 2.60  34 2.61  56 2.64  39 2.64  36 2.64   8 2.66

  36  0.200  0.003  0.204-  62 2.53  30 2.57  41 2.60  37 2.62  13 2.63  52 2.63  35 2.64  57 2.65
                             8 3.00
  37  0.196  0.002  0.403-  38 2.57  31 2.60  63 2.60  14 2.60  53 2.61  36 2.62  58 2.66  18 2.66

  38  0.202  0.002  0.602-  42 2.53  54 2.57  37 2.57  59 2.59  39 2.59   3 2.59  32 2.60  15 2.61
                             2 2.97
  39  0.204  0.003  0.801-  55 2.49  43 2.56   2 2.57  60 2.59  38 2.59  33 2.62  16 2.63  35 2.64
                             3 2.96
  40  0.199  0.201  0.001-  35 2.55  16 2.58  65 2.58  44 2.58  43 2.61  17 2.64  60 2.65  41 2.65

  41  0.196  0.200  0.202-  12 2.46 119 2.57  36 2.60  45 2.62  40 2.65  18 2.69  61 2.71   7 2.73

  42  0.203  0.197  0.606-  38 2.53  43 2.54  63 2.58  66 2.59  19 2.60  14 2.60  18 2.61 118 2.67
                             3 2.97   9 3.02
  43  0.203  0.198  0.801-  47 2.51  42 2.54  39 2.56  20 2.60   3 2.60  40 2.61  64 2.61  15 2.62

  44  0.197  0.398  0.002-  48 2.53  45 2.57  40 2.58   1 2.59  47 2.59  20 2.61  68 2.63  64 2.64

  45  0.196  0.399  0.198-  17 2.56  44 2.57  46 2.57  21 2.59  49 2.60  41 2.62  65 2.64  69 2.66
                             1 2.95 119 3.02
  46  0.207  0.414  0.403-   4 2.52  50 2.54  45 2.57 119 2.61  22 2.64 118 2.64   7 2.66  18 2.73
                            51 2.88  69 2.91   9 3.02
  47  0.200  0.389  0.801-  43 2.51  66 2.56  44 2.59  19 2.63  24 2.66  67 2.69 118 2.73 123 2.75
                            20 2.91
  48  0.203  0.597  0.015-  49 2.43  44 2.53  72 2.59  25 2.61  67 2.64  24 2.69   8 2.77 123 2.77
                            68 2.88   1 2.92
  49  0.197  0.598  0.199-  48 2.43   1 2.54  50 2.56  45 2.60  26 2.62  52 2.63  68 2.63  73 2.65

  50  0.198  0.604  0.397-  51 2.53  46 2.54  49 2.56  27 2.57  53 2.58  21 2.61  74 2.61  69 2.62
                             4 3.02
  51  0.204  0.604  0.593-   4 2.50  50 2.53  54 2.61  22 2.63  28 2.66  75 2.66 118 2.72 123 2.78
                            46 2.88
  52  0.200  0.803  0.206-  53 2.56  31 2.58  58 2.58  36 2.63  49 2.63   8 2.65  72 2.65  25 2.67

  53  0.201  0.803  0.403-  52 2.56  32 2.56  54 2.57  50 2.58  59 2.59  37 2.61  73 2.61  26 2.65

  54  0.204  0.806  0.601-  55 2.54  38 2.57  53 2.57   2 2.59  74 2.61  33 2.61  51 2.61  27 2.65

  55  0.201  0.810  0.796-  34 2.42  39 2.49  54 2.54  75 2.60  56 2.61  28 2.66   8 2.76 123 2.78
                            33 2.91   2 2.96
  56  0.402  0.004  0.000-  82 2.57  60 2.58  76 2.60  55 2.61  71 2.61   2 2.63  35 2.64  57 2.66

  57  0.405  0.006  0.205- 120 2.55  61 2.58  58 2.62  72 2.63   8 2.64  36 2.65  56 2.66  77 2.68

  58  0.399  0.001  0.402-  83 2.57  62 2.58  52 2.58  73 2.59  59 2.61  57 2.62  37 2.66  78 2.67
                           120 3.06
  59  0.400  0.000  0.602-  63 2.55   2 2.56  84 2.57  38 2.59  53 2.59  74 2.60  79 2.60  58 2.61
                             3 2.98
  60  0.401  0.201  1.000-  86 2.57  81 2.57   3 2.58  56 2.58  64 2.58  39 2.59  61 2.62  40 2.65
                             2 2.99
  61  0.403  0.201  0.201-   5 2.55  35 2.57  57 2.58  82 2.60  60 2.62  65 2.63  62 2.67  41 2.71
                           119 2.98 120 3.01
  62  0.393  0.195  0.400-  36 2.53  87 2.54  58 2.58  63 2.65 119 2.65  61 2.67 120 2.73  18 2.84
                             9 3.02
  63  0.398  0.195  0.604-  59 2.55   3 2.56  42 2.58  88 2.59  37 2.60  83 2.63  62 2.65   9 2.69
                            84 2.89
  64  0.400  0.399  0.003-  65 2.55  90 2.56  66 2.57  60 2.58  67 2.59  85 2.60  43 2.61  44 2.64

  65  0.398  0.399  0.197-  64 2.55  40 2.58 119 2.59  86 2.60  68 2.60  91 2.62  61 2.63  45 2.64
                             5 3.04
  66  0.399  0.396  0.804-  47 2.56  64 2.57  89 2.58  42 2.59   3 2.59  88 2.60  70 2.67   9 2.68
                           118 3.20
  67  0.403  0.599  0.006-  89 2.56  95 2.56  68 2.57  64 2.59  48 2.64  47 2.69  71 2.73  70 2.75
                            90 2.92 123 3.01
  68  0.400  0.600  0.202-  67 2.57  90 2.57  69 2.58  65 2.60  96 2.61  44 2.63  49 2.63  72 2.64
                            48 2.88
  69  0.400  0.604  0.400-  68 2.58  97 2.59   4 2.60  73 2.61  91 2.61  50 2.62  45 2.66 119 2.67
                            46 2.91
  70  0.408  0.600  0.797-  93 2.38   4 2.58  94 2.62 123 2.67  66 2.67  67 2.75  75 2.77 118 2.81
                            98 2.90   9 2.93
  71  0.419  0.816  0.016-  77 2.42  94 2.50  72 2.59  56 2.61  75 2.73  67 2.73   8 2.75 123 2.75
                            95 2.88  76 2.89
  72  0.402  0.803  0.204-  73 2.57  95 2.58  78 2.58  71 2.59  48 2.59  57 2.63  68 2.64  52 2.65
                             8 3.03
  73  0.400  0.802  0.400-  79 2.56  72 2.57  58 2.59  74 2.60  96 2.60  69 2.61  53 2.61  49 2.65

  74  0.400  0.801  0.598-   4 2.55  97 2.58  80 2.60  59 2.60  73 2.60  75 2.60  54 2.61  50 2.61
                            98 2.89
  75  0.401  0.810  0.800-  98 2.52  76 2.53   2 2.56  74 2.60  55 2.60  51 2.66  71 2.73  70 2.77
                             4 3.04 123 3.07
  76  0.597  0.999  0.996-  75 2.53 104 2.54  99 2.56  80 2.58  81 2.59  56 2.60  94 2.61  77 2.63
                            71 2.89   2 3.00   6 3.01
  77  0.606  0.001  0.200-  71 2.42   6 2.50  95 2.61 105 2.63  76 2.63  82 2.63  78 2.64  57 2.68
                           120 3.02
  78  0.602  0.999  0.401- 100 2.56  96 2.58  72 2.58  79 2.59 106 2.60 120 2.63  77 2.64  58 2.67

  79  0.596  0.998  0.596-  97 2.56  73 2.56  83 2.58  78 2.59  59 2.60  80 2.63 101 2.65  10 2.69

  80  0.595  0.002  0.798-   2 2.55  76 2.58  98 2.59  74 2.60  84 2.62 102 2.63  79 2.63 103 2.64

  81  0.596  0.197  0.996-   2 2.54  85 2.57  60 2.57  84 2.58  76 2.59  82 2.60 103 2.60 108 2.63
                           104 2.92   3 2.94
  82  0.601  0.199  0.197- 104 2.50  56 2.57  86 2.58  81 2.60  61 2.60 109 2.61 120 2.62  77 2.63
                             5 3.02
  83  0.598  0.196  0.599-  58 2.57  79 2.58  87 2.59 111 2.61  84 2.62  63 2.63 120 2.65 106 2.72
                            10 3.02
  84  0.593  0.201  0.799-   3 2.49  88 2.55  59 2.57  81 2.58  80 2.62  83 2.62 107 2.63  10 2.71
                            63 2.89   2 2.93
  85  0.596  0.394  0.997-   3 2.55  81 2.57  64 2.60  89 2.61  88 2.62 113 2.63  86 2.63 107 2.64

  86  0.597  0.396  0.199-  60 2.57   5 2.58  82 2.58  65 2.60 121 2.63  85 2.63  90 2.64 108 2.64

  87  0.593  0.389  0.588-  62 2.54   5 2.55  83 2.59  11 2.63 110 2.64  92 2.69   9 2.69  88 2.70
                           120 2.93 119 2.99
  88  0.597  0.397  0.798-  84 2.55  63 2.59  66 2.60  85 2.62 111 2.64 112 2.64  93 2.66  87 2.70
                            11 2.88   3 3.00   9 3.04
  89  0.596  0.595  0.001-  67 2.56  90 2.58  66 2.58  93 2.58  85 2.61 112 2.62 122 2.65  94 2.70

  90  0.595  0.597  0.198-  64 2.56  68 2.57  89 2.58  91 2.59  95 2.62  86 2.64 113 2.65 116 2.67
                            67 2.92 121 3.03 122 3.05
  91  0.598  0.599  0.398-  90 2.59  92 2.60  69 2.61  65 2.62 117 2.62  96 2.62 121 2.64   5 2.64
                           119 3.00
  92  0.588  0.594  0.592- 119 2.54   4 2.56  91 2.60  97 2.67  87 2.69 114 2.71  93 2.73 124 2.76
                             9 2.99   5 3.04
  93  0.593  0.601  0.805-  70 2.38  89 2.58 115 2.63   9 2.66  88 2.66  11 2.66  98 2.67  92 2.73
                           124 3.16
  94  0.601  0.803  0.001-  71 2.50 115 2.55   6 2.56  76 2.61  70 2.62  95 2.65  98 2.65  89 2.70
                           122 3.03
  95  0.597  0.799  0.201-  67 2.56 100 2.58  72 2.58  96 2.60  77 2.61 122 2.62  90 2.62  94 2.65
                            71 2.88
  96  0.599  0.801  0.401-  97 2.55  78 2.58  73 2.60  95 2.60  68 2.61  91 2.62 101 2.64 116 2.64

  97  0.599  0.803  0.597-  96 2.55  79 2.56  74 2.58  69 2.59  98 2.62 117 2.65 102 2.66  92 2.67
                             4 3.02 124 3.08
  98  0.587  0.799  0.792-   4 2.51  75 2.52  80 2.59  97 2.62  94 2.65  93 2.67  99 2.70 124 2.78
                            74 2.89  70 2.90
  99  0.795  0.000  0.003-   6 2.53  76 2.56 103 2.59 115 2.65 102 2.68  12 2.68  98 2.70   7 2.71
                           124 3.09
 100  0.796  0.996  0.398-  78 2.56 116 2.57  14 2.58  95 2.58 105 2.59 101 2.60  19 2.61   6 2.65
                           122 2.97
 101  0.802  0.003  0.601- 117 2.55 106 2.57  20 2.58 100 2.60  15 2.62 102 2.62  96 2.64  79 2.65
                            10 3.04
 102  0.800  0.008  0.802-  10 2.56  17 2.59 101 2.62  80 2.63  97 2.66  16 2.67  99 2.68 124 2.69

 103  0.798  0.199  0.003- 104 2.50  99 2.59  81 2.60 107 2.60  17 2.61  21 2.61  80 2.64  10 2.66

 104  0.789  0.197  0.190- 103 2.50  82 2.50  76 2.54 105 2.55   7 2.56 108 2.56   6 2.64  22 2.71
                            81 2.92
 105  0.818  0.198  0.394-  23 2.55 104 2.55 100 2.59  77 2.63 109 2.68 106 2.69 120 2.83   6 2.84
                            22 2.87  19 2.89
 106  0.805  0.198  0.595-  19 2.55 101 2.57  78 2.60 110 2.61  24 2.61 105 2.69  10 2.70  83 2.72
                            23 2.92 120 3.02
 107  0.800  0.398  1.000- 112 2.56 108 2.58   1 2.59 103 2.60  26 2.62 111 2.62  84 2.63  85 2.64
                            10 2.96
 108  0.799  0.398  0.197- 104 2.56 113 2.58 107 2.58  21 2.59 109 2.61  81 2.63  86 2.64  27 2.64
                           121 3.03
 109  0.801  0.398  0.397-  22 2.57  82 2.61 108 2.61  28 2.61 110 2.62 121 2.64   5 2.65 105 2.68
                           120 3.00
 110  0.801  0.396  0.597-  23 2.51  29 2.53 120 2.58 106 2.61 114 2.61 109 2.62  87 2.64 111 2.64
                             5 3.04  11 3.04
 111  0.798  0.396  0.798-  11 2.53  10 2.55  83 2.61  24 2.61 107 2.62  25 2.63  88 2.64 110 2.64

 112  0.798  0.594  0.005- 113 2.52 107 2.56  89 2.62  88 2.64  11 2.64  25 2.64  31 2.65 115 2.69
                           122 3.03
 113  0.797  0.595  0.198- 112 2.52 108 2.58 121 2.58  26 2.58  85 2.63  90 2.65 122 2.67  32 2.69

 114  0.794  0.591  0.590-   5 2.54 121 2.57 110 2.61  28 2.64  92 2.71 117 2.75  11 2.76  34 2.79
                           124 3.11
 115  0.797  0.799  0.006-  13 2.51 122 2.55  94 2.55  93 2.63  99 2.65  30 2.65 112 2.69 124 2.74
                             6 2.95
 116  0.801  0.802  0.401- 117 2.49 100 2.57 122 2.59  15 2.60 121 2.64  96 2.64  32 2.65  90 2.67

 117  0.800  0.804  0.592- 116 2.49 101 2.55  91 2.62  33 2.62  97 2.65  16 2.67 124 2.71 114 2.75
                           121 3.02
 118  0.185  0.388  0.587-  23 2.59  46 2.64   9 2.65  42 2.67  51 2.72  47 2.73  18 2.81  70 2.81
                            19 2.89  22 2.92 123 3.12   4 3.17  66 3.20
 119  0.398  0.397  0.394-  92 2.54  41 2.57  65 2.59   5 2.61  46 2.61  62 2.65  69 2.67   9 2.68
                            61 2.98  87 2.99  91 3.00  45 3.02   4 3.11
 120  0.603  0.200  0.399-  57 2.55 110 2.58   5 2.61  82 2.62  78 2.63  83 2.65  62 2.73 105 2.83
                            87 2.93 109 3.00  61 3.01 106 3.02  77 3.02  58 3.06
 121  0.799  0.599  0.398- 114 2.57 113 2.58  86 2.63  27 2.63 109 2.64 116 2.64  91 2.64  33 2.65
                            28 3.01 117 3.02 108 3.03  90 3.03   5 3.04  32 3.05
 122  0.799  0.801  0.202- 115 2.55 116 2.59  95 2.62  31 2.63   6 2.64  89 2.65  14 2.65 113 2.67
                           100 2.97  13 2.97  94 3.03 112 3.03  32 3.05  90 3.05
 123  0.208  0.604  0.807-  70 2.67  23 2.74  47 2.75  71 2.75  29 2.76  48 2.77  51 2.78  55 2.78
                            67 3.01   8 3.06  75 3.07 118 3.12  28 3.12  24 3.13
 124  0.804  0.803  0.800- 102 2.69 117 2.71  12 2.73 115 2.74  34 2.75  92 2.76  11 2.77  98 2.78
                            16 3.02  97 3.08  30 3.08  99 3.09 114 3.11  93 3.16
 
  LATTYP: Found a triclinic cell.
 ALAT       =    36.9484934985
 B/A-ratio  =     0.3535186554
 C/A-ratio  =     0.5772698908
 COS(alpha) =     0.0002416466
 COS(beta)  =     0.2887267664
 COS(gamma) =     0.9428158987
  
  Lattice vectors:
  
 A1 = (  30.1710571640, -15.0866049150, -15.0762340640)
 A2 = (   7.5429280460,  -7.5406991980,  -7.5403885230)
 A3 = (  15.0799980970,  15.0841177710,  -0.0085907380)


Analysis of symmetry for initial positions (statically):
=====================================================================
 Subroutine PRICEL returns:
 Original cell was already a primitive cell.
 

 Routine SETGRP: Setting up the symmetry group for a 
 triclinic supercell.


 Subroutine GETGRP returns: Found  1 space group operations
 (whereof  1 operations were pure point group operations)
 out of a pool of  2 trial point group operations.


The static configuration has the point symmetry C_1 .


Analysis of symmetry for dynamics (positions and initial velocities):
=====================================================================
 Subroutine PRICEL returns:
 Original cell was already a primitive cell.
 

 Routine SETGRP: Setting up the symmetry group for a 
 triclinic supercell.


 Subroutine GETGRP returns: Found  1 space group operations
 (whereof  1 operations were pure point group operations)
 out of a pool of  2 trial point group operations.


The dynamic configuration has the point symmetry C_1 .


 Subroutine INISYM returns: Found  1 space group operations
 (whereof  1 operations are pure point group operations),
 and found     1 'primitive' translations


----------------------------------------------------------------------------------------

                                     Primitive cell                                     

  volume of cell :    1718.3948

  direct lattice vectors                    reciprocal lattice vectors
    -7.542928046  7.540699198  7.540388523     0.000002930  0.066329719  0.066289639
     7.547476001 -7.553831611  7.558065225     0.066270222  0.000080482  0.066212056
     7.537725071  7.548625092 -7.553522243     0.066313004  0.066294918  0.000037688

  length of vectors
    13.061981740 13.082397179 13.071141431     0.093776052  0.093679160  0.093767969

  position of ions in fractional coordinates (direct lattice)
     0.001961955  0.402818517  0.004857671
     0.401160287  0.005181480  0.799529835
     0.401824329  0.197634796  0.801416616
     0.398323437  0.605007103  0.598726855
     0.598372950  0.396744639  0.397091090
     0.796145637  0.999628651  0.196157592
     0.995073634  0.203169167  0.221129637
     0.200948132  0.804694441  0.004731576
     0.393781668  0.397402256  0.597964605
     0.802191197  0.204152559  0.802530456
     0.789046908  0.586024402  0.797735243
     0.007981581  0.014134300  0.012406422
     0.992254440  0.991903559  0.193088169
     0.999326681  0.008561845  0.402191497
     0.001196250  0.000922152  0.599256840
     0.003042985  0.004796830  0.800838317
     0.998397836  0.205188838  0.000823219
     0.175028086  0.195436828  0.398462330
     0.999475162  0.196237518  0.592874008
     0.002631220  0.198050496  0.798449888
     0.998935293  0.402769599  0.197248260
     0.998796438  0.399797291  0.398045721
     0.994092032  0.398762111  0.597764864
     0.999065956  0.395286733  0.803491164
     0.999172709  0.595986706  0.000907765
     0.997321043  0.600506718  0.199799118
     0.001475929  0.600615920  0.398475477
     0.000681109  0.599419082  0.596178075
     0.988643441  0.592089565  0.793347397
     0.002830590  0.804281637  0.010903102
     0.000483113  0.799422401  0.204264906
     0.004100738  0.802243027  0.402268794
     0.002315610  0.802389405  0.600129570
     0.014162148  0.801265579  0.801046904
     0.202415380  0.008498126  0.004098749
     0.200335382  0.003006760  0.203832312
     0.196407264  0.001536457  0.402618755
     0.202208729  0.001905628  0.601501537
     0.203963275  0.002989322  0.800608727
     0.199132288  0.201212686  0.000684902
     0.196365460  0.200008524  0.202461749
     0.202568623  0.196907289  0.606231651
     0.202725702  0.198211394  0.801127607
     0.197432195  0.398113921  0.001573628
     0.196471892  0.399027428  0.197903664
     0.206881458  0.414323785  0.402580765
     0.200096687  0.389422476  0.801352936
     0.203367554  0.597263628  0.014806050
     0.197062697  0.598242561  0.198594185
     0.198365570  0.603542346  0.396908327
     0.204354462  0.603575395  0.592767732
     0.199681373  0.802727778  0.206394313
     0.200613557  0.803220348  0.402516316
     0.203550503  0.805633019  0.601111195
     0.200564152  0.810262044  0.795546080
     0.401510168  0.004414406  0.000327634
     0.404625387  0.005711807  0.205250317
     0.399351502  0.000980191  0.402106955
     0.399622723  0.000228990  0.601637378
     0.401437414  0.201267831  0.999549511
     0.403446490  0.201190252  0.200864217
     0.392839732  0.195121705  0.399523121
     0.398284951  0.195148147  0.603711163
     0.400322168  0.399100545  0.002728876
     0.397875548  0.398711312  0.196854165
     0.399324925  0.395760914  0.804492485
     0.403332496  0.599146279  0.005985338
     0.400321681  0.600096364  0.201538888
     0.400461422  0.603881766  0.400320856
     0.407687660  0.599819940  0.796946297
     0.418969389  0.816339674  0.016371233
     0.402029885  0.803073499  0.203763671
     0.399546743  0.802486783  0.399598363
     0.400375552  0.800721019  0.598055948
     0.401250176  0.809996043  0.800120123
     0.596780925  0.999118283  0.995550281
     0.606353115  0.000884836  0.200498641
     0.602431563  0.998961252  0.400735212
     0.596097879  0.997860290  0.596052095
     0.595122416  0.001609655  0.798457979
     0.596150214  0.197390722  0.996365132
     0.600749243  0.199277251  0.197194515
     0.598081559  0.196487355  0.598777818
     0.592539550  0.201075532  0.798875043
     0.595887027  0.394058984  0.997074340
     0.597169737  0.396214658  0.199423264
     0.593148253  0.388939283  0.587577107
     0.596539049  0.396979656  0.798094470
     0.595890206  0.594970008  0.000857025
     0.595115252  0.596556133  0.198259875
     0.597714471  0.598992046  0.398244712
     0.587826629  0.593931434  0.592065998
     0.593077642  0.601090552  0.804699748
     0.600687147  0.803031306  0.001078630
     0.597358242  0.798767823  0.200876159
     0.598619580  0.800749007  0.401143644
     0.598681189  0.803418777  0.597264447
     0.587299757  0.798777093  0.792473699
     0.795199446  0.000393594  0.002913553
     0.796491878  0.995656489  0.398009671
     0.802164293  0.003144662  0.601038541
     0.799731822  0.007641713  0.802123172
     0.797941283  0.199299630  0.003315922
     0.788652592  0.196626334  0.190185660
     0.817663132  0.198286085  0.393878083
     0.805471396  0.198145455  0.594969261
     0.799853114  0.397529927  0.999585672
     0.799011883  0.398019284  0.196718259
     0.801167079  0.397616778  0.397036574
     0.800582513  0.396246045  0.596807224
     0.797967044  0.396104488  0.798004547
     0.797625446  0.594086257  0.004992166
     0.797199931  0.594950968  0.198255249
     0.794126118  0.591403990  0.590020026
     0.796503179  0.799414283  0.005865968
     0.801113969  0.801869491  0.401223746
     0.799672705  0.804220921  0.591972450
     0.184663297  0.387954041  0.587244574
     0.398133048  0.397233074  0.394343362
     0.603134749  0.199640148  0.398856785
     0.799480346  0.598742158  0.397796500
     0.798698278  0.800537038  0.201739854
     0.208227901  0.604036766  0.806693667
     0.804140787  0.803045657  0.799962617

  ion indices of the primitive-cell ions
   primitive index   ion index
                 1           1
                 2           2
                 3           3
                 4           4
                 5           5
                 6           6
                 7           7
                 8           8
                 9           9
                10          10
                11          11
                12          12
                13          13
                14          14
                15          15
                16          16
                17          17
                18          18
                19          19
                20          20
                21          21
                22          22
                23          23
                24          24
                25          25
                26          26
                27          27
                28          28
                29          29
                30          30
                31          31
                32          32
                33          33
                34          34
                35          35
                36          36
                37          37
                38          38
                39          39
                40          40
                41          41
                42          42
                43          43
                44          44
                45          45
                46          46
                47          47
                48          48
                49          49
                50          50
                51          51
                52          52
                53          53
                54          54
                55          55
                56          56
                57          57
                58          58
                59          59
                60          60
                61          61
                62          62
                63          63
                64          64
                65          65
                66          66
                67          67
                68          68
                69          69
                70          70
                71          71
                72          72
                73          73
                74          74
                75          75
                76          76
                77          77
                78          78
                79          79
                80          80
                81          81
                82          82
                83          83
                84          84
                85          85
                86          86
                87          87
                88          88
                89          89
                90          90
                91          91
                92          92
                93          93
                94          94
                95          95
                96          96
                97          97
                98          98
                99          99
               100         100
               101         101
               102         102
               103         103
               104         104
               105         105
               106         106
               107         107
               108         108
               109         109
               110         110
               111         111
               112         112
               113         113
               114         114
               115         115
               116         116
               117         117
               118         118
               119         119
               120         120
               121         121
               122         122
               123         123
               124         124

----------------------------------------------------------------------------------------

 
 
 KPOINTS: KPOINTS generated by db_to_vasp         

Automatic generation of k-mesh.
 Grid dimensions read from file:
 generate k-points for:    4    4    4

 Generating k-lattice:

  Cartesian coordinates                     Fractional coordinates (reciprocal lattice)
     0.000000732  0.016582430  0.016572410     0.250000000 -0.000000000 -0.000000000
     0.016567555  0.000020120  0.016553014    -0.000000000  0.250000000 -0.000000000
     0.016578251  0.016573730  0.000009422     0.000000000 -0.000000000  0.250000000

  Length of vectors
     0.023444013  0.023419790  0.023441992

  Shift w.r.t. Gamma in fractional coordinates (k-lattice)
     0.000000000  0.000000000  0.000000000

 
 Subroutine IBZKPT returns following result:
 ===========================================
 
 Found     36 irreducible k-points:
 
 Following reciprocal coordinates:
            Coordinates               Weight
  0.000000  0.000000  0.000000      1.000000
  0.250000  0.000000  0.000000      2.000000
  0.500000  0.000000  0.000000      1.000000
  0.000000  0.250000  0.000000      2.000000
  0.250000  0.250000  0.000000      2.000000
  0.500000  0.250000  0.000000      2.000000
 -0.250000  0.250000  0.000000      2.000000
  0.000000  0.500000  0.000000      1.000000
  0.250000  0.500000  0.000000      2.000000
  0.500000  0.500000  0.000000      1.000000
  0.000000  0.000000  0.250000      2.000000
  0.250000  0.000000  0.250000      2.000000
  0.500000  0.000000  0.250000      2.000000
 -0.250000  0.000000  0.250000      2.000000
  0.000000  0.250000  0.250000      2.000000
  0.250000  0.250000  0.250000      2.000000
  0.500000  0.250000  0.250000      2.000000
 -0.250000  0.250000  0.250000      2.000000
  0.000000  0.500000  0.250000      2.000000
  0.250000  0.500000  0.250000      2.000000
  0.500000  0.500000  0.250000      2.000000
 -0.250000  0.500000  0.250000      2.000000
  0.000000 -0.250000  0.250000      2.000000
  0.250000 -0.250000  0.250000      2.000000
  0.500000 -0.250000  0.250000      2.000000
 -0.250000 -0.250000  0.250000      2.000000
  0.000000  0.000000  0.500000      1.000000
  0.250000  0.000000  0.500000      2.000000
  0.500000  0.000000  0.500000      1.000000
  0.000000  0.250000  0.500000      2.000000
  0.250000  0.250000  0.500000      2.000000
  0.500000  0.250000  0.500000      2.000000
 -0.250000  0.250000  0.500000      2.000000
  0.000000  0.500000  0.500000      1.000000
  0.250000  0.500000  0.500000      2.000000
  0.500000  0.500000  0.500000      1.000000
 
 Following cartesian coordinates:
            Coordinates               Weight
  0.000000  0.000000  0.000000      1.000000
  0.000001  0.016582  0.016572      2.000000
  0.000001  0.033165  0.033145      1.000000
  0.016568  0.000020  0.016553      2.000000
  0.016568  0.016603  0.033125      2.000000
  0.016569  0.033185  0.049698      2.000000
  0.016567 -0.016562 -0.000019      2.000000
  0.033135  0.000040  0.033106      1.000000
  0.033136  0.016623  0.049678      2.000000
  0.033137  0.033205  0.066251      1.000000
  0.016578  0.016574  0.000009      2.000000
  0.016579  0.033156  0.016582      2.000000
  0.016580  0.049739  0.033154      2.000000
  0.016578 -0.000009 -0.016563      2.000000
  0.033146  0.016594  0.016562      2.000000
  0.033147  0.033176  0.033135      2.000000
  0.033147  0.049759  0.049707      2.000000
  0.033145  0.000011 -0.000010      2.000000
  0.049713  0.016614  0.033115      2.000000
  0.049714  0.033196  0.049688      2.000000
  0.049715  0.049779  0.066260      2.000000
  0.049713  0.000032  0.016543      2.000000
  0.000011  0.016554 -0.016544      2.000000
  0.000011  0.033136  0.000029      2.000000
  0.000012  0.049718  0.016601      2.000000
  0.000010 -0.000029 -0.033116      2.000000
  0.033157  0.033147  0.000019      1.000000
  0.033157  0.049730  0.016591      2.000000
  0.033158  0.066312  0.033164      1.000000
  0.049724  0.033168  0.016572      2.000000
  0.049725  0.049750  0.033144      2.000000
  0.049726  0.066332  0.049717      2.000000
  0.049723  0.016585 -0.000001      2.000000
  0.066292  0.033188  0.033125      1.000000
  0.066292  0.049770  0.049697      2.000000
  0.066293  0.066353  0.066270      1.000000
 


--------------------------------------------------------------------------------------------------------




 Dimension of arrays:
   k-points           NKPTS =     36   k-points in BZ     NKDIM =     36   number of bands    NBANDS=    832
   number of dos      NEDOS =    301   number of ions     NIONS =    124
   non local maximal  LDIM  =      6   non local SUM 2l+1 LMDIM =     18
   total plane-waves  NPLWV = 941192
   max r-space proj   IRMAX =      1   max aug-charges    IRDMAX=  31460
   dimension x,y,z NGX =    98 NGY =   98 NGZ =   98
   dimension x,y,z NGXF=   196 NGYF=  196 NGZF=  196
   support grid    NGXF=   196 NGYF=  196 NGZF=  196
   ions per type =               6   5 106   5   2
   NGX,Y,Z   is equivalent  to a cutoff of  12.47, 12.45, 12.46 a.u.
   NGXF,Y,Z  is equivalent  to a cutoff of  24.95, 24.91, 24.93 a.u.

 SYSTEM =  unknown system                          
 POSCAR =  Cr Ti V  W  Zr                          

 Startparameter for this run:
   NWRITE =      2    write-flag & timer
   PREC   = accura    normal or accurate (medium, high low for compatibility)
   ISTART =      0    job   : 0-new  1-cont  2-samecut
   ICHARG =      2    charge: 1-file 2-atom 10-const
   ISPIN  =      1    spin polarized calculation?
   LNONCOLLINEAR =      F non collinear calculations
   LSORBIT =      F    spin-orbit coupling
   INIWAV =      1    electr: 0-lowe 1-rand  2-diag
   LASPH  =      F    aspherical Exc in radial PAW
 Electronic Relaxation 1
   ENCUT  =  520.0 eV  38.22 Ry    6.18 a.u.  24.29 24.32 24.30*2*pi/ulx,y,z
   ENINI  =  520.0     initial cutoff
   ENAUG  =  598.5 eV  augmentation charge cutoff
   NELM   =    100;   NELMIN=  2; NELMDL= -5     # of ELM steps 
   EDIFF  = 0.1E-05   stopping-criterion for ELM
   LREAL  =      F    real-space projection
   NLSPLINE    = F    spline interpolate recip. space projectors
   LCOMPAT=      F    compatible to vasp.4.4
   GGA_COMPAT  = T    GGA compatible to vasp.4.4-vasp.4.6
   LMAXPAW     = -100 max onsite density
   LMAXMIX     =    2 max onsite mixed and CHGCAR
   VOSKOWN=      0    Vosko Wilk Nusair interpolation
   ROPT   =    0.00000   0.00000   0.00000   0.00000
   ROPT   =    0.00000
 Ionic relaxation
   EDIFFG = -.1E-01   stopping-criterion for IOM
   NSW    =     -1    number of steps for IOM
   NBLOCK =      1;   KBLOCK =      1    inner block; outer block 
   IBRION =      2    ionic relax: 0-MD 1-quasi-New 2-CG
   NFREE  =      1    steps in history (QN), initial steepest desc. (CG)
   ISIF   =      2    stress and relaxation
   IWAVPR =     11    prediction:  0-non 1-charg 2-wave 3-comb
   ISYM   =      2    0-nonsym 1-usesym 2-fastsym
   LCORR  =      T    Harris-Foulkes like correction to forces

   POTIM  = 0.2000    time-step for ionic-motion
   TEIN   =    0.0    initial temperature
   TEBEG  =    0.0;   TEEND  =   0.0 temperature during run
   SMASS  =  -3.00    Nose mass-parameter (am)
   estimated Nose-frequenzy (Omega)   =  0.10E-29 period in steps = 0.31E+47 mass=  -0.390E-26a.u.
   SCALEE = 1.0000    scale energy and forces
   NPACO  =    256;   APACO  = 10.0  distance and # of slots for P.C.
   PSTRESS=    0.0 pullay stress

  Mass of Ions in am
   POMASS =  52.00 47.88 50.94183.85 91.22
  Ionic Valenz
   ZVAL   =  12.00 10.00 11.00 14.00 12.00
  Atomic Wigner-Seitz radii
   RWIGS  =  -1.00 -1.00 -1.00 -1.00 -1.00
  virtual crystal weights 
   VCA    =   1.00  1.00  1.00  1.00  1.00
   NELECT =    1382.0000    total number of electrons
   NUPDOWN=      -1.0000    fix difference up-down

 DOS related values:
   EMIN   =  10.00;   EMAX   =-10.00  energy-range for DOS
   EFERMI =   0.00;   METHOD = LEGACY      
   ISMEAR =     1;   SIGMA  =   0.20  broadening in eV -4-tet -1-fermi 0-gaus

 Electronic relaxation 2 (details)
   IALGO  =     38    algorithm
   LDIAG  =      T    sub-space diagonalisation (order eigenvalues)
   LSUBROT=      F    optimize rotation matrix (better conditioning)
   TURBO    =      0    0=normal 1=particle mesh
   IRESTART =      0    0=no restart 2=restart with 2 vectors
   NREBOOT  =      0    no. of reboots
   NMIN     =      0    reboot dimension
   EREF     =   0.00    reference energy to select bands
   IMIX   =      4    mixing-type and parameters
     AMIX     =   0.40;   BMIX     =  1.00
     AMIX_MAG =   1.60;   BMIX_MAG =  1.00
     AMIN     =   0.10
     WC   =   100.;   INIMIX=   1;  MIXPRE=   1;  MAXMIX= -45

 Intra band minimization:
   WEIMIN = 0.0010     energy-eigenvalue tresh-hold
   EBREAK =  0.30E-09  absolut break condition
   DEPER  =   0.30     relativ break condition  

   TIME   =   0.40     timestep for ELM

  volume/ion in A,a.u.               =      13.86        93.52
  Fermi-wavevector in a.u.,A,eV,Ry     =   1.522427  2.876970 31.535373  2.317785
  Thomas-Fermi vector in A             =   2.631008
 
 Write flags
   LWAVE        =      F    write WAVECAR
   LDOWNSAMPLE  =      F    k-point downsampling of WAVECAR
   LCHARG       =      T    write CHGCAR
   LVTOT        =      F    write LOCPOT, total local potential
   LVHAR        =      F    write LOCPOT, Hartree potential only
   LELF         =      F    write electronic localiz. function (ELF)
   LORBIT       =     11    0 simple, 1 ext, 2 COOP (PROOUT), +10 PAW based schemes


 Dipole corrections
   LMONO  =      F    monopole corrections only (constant potential shift)
   LDIPOL =      F    correct potential (dipole corrections)
   IDIPOL =      0    1-x, 2-y, 3-z, 4-all directions 
   EPSILON=  1.0000000 bulk dielectric constant

 Exchange correlation treatment:
   GGA     =    PE    GGA type
   LEXCH   =     8    internal setting for exchange type
   LIBXC   =     F    Libxc                    
   VOSKOWN =     0    Vosko Wilk Nusair interpolation
   LHFCALC =     F    Hartree Fock is set to
   LHFONE  =     F    Hartree Fock one center treatment
   AEXX    =    0.0000 exact exchange contribution

 Linear response parameters
   LEPSILON=     F    determine dielectric tensor
   LRPA    =     F    only Hartree local field effects (RPA)
   LNABLA  =     F    use nabla operator in PAW spheres
   LVEL    =     F    velocity operator in full k-point grid
   CSHIFT  =0.1000    complex shift for real part using Kramers Kronig
   OMEGAMAX=  -1.0    maximum frequency
   DEG_THRESHOLD= 0.2000000E-02 threshold for treating states as degnerate
   RTIME   =   -0.100 relaxation time in fs
  (WPLASMAI=    0.000 imaginary part of plasma frequency in eV, 0.658/RTIME)
   DFIELD  = 0.0000000 0.0000000 0.0000000 field for delta impulse in time
 
  Optional k-point grid parameters
   LKPOINTS_OPT  =     F    use optional k-point grid
   KPOINTS_OPT_MODE=     1    mode for optional k-point grid
 
 Orbital magnetization related:
   ORBITALMAG=     F  switch on orbital magnetization
   LCHIMAG   =     F  perturbation theory with respect to B field
   DQ        =  0.001000  dq finite difference perturbation B field
   LLRAUG    =     F  two centre corrections for induced B field
   LBONE     =     F  B-component reconstruction in AE one-centre
   LVGVCALC  =     T  calculate vGv susceptibility
   LVGVAPPL  =     F  apply vGv susceptibility instead of pGv for G=0

 Random number generation:
   RANDOM_GENERATOR = DEFAULT
   PCG_SEED         = not used


--------------------------------------------------------------------------------------------------------


 conjugate gradient relaxation of ions
 charge density and potential will be updated during run
 non-spin polarized calculation
 Variant of blocked Davidson
 Davidson routine will perform the subspace rotation
 perform sub-space diagonalisation
    after iterative eigenvector-optimisation
 modified Broyden-mixing scheme, WC =      100.0
 initial mixing is a Kerker type mixing with AMIX =  0.4000 and BMIX =      1.0000
 Hartree-type preconditioning will be used
 using additional bands           141
 reciprocal scheme for non local part
 use partial core corrections
 calculate Harris-corrections to forces 
   (improved forces if not selfconsistent)
 use gradient corrections 
 use of overlap-Matrix (Vanderbilt PP)
 Methfessel and Paxton  Order N= 1 SIGMA  =   0.20


--------------------------------------------------------------------------------------------------------


  energy-cutoff  :      520.00
  volume of cell :     1718.39
      direct lattice vectors                 reciprocal lattice vectors
    -7.542928046  7.540699198  7.540388523     0.000002930  0.066329719  0.066289639
     7.547476001 -7.553831611  7.558065225     0.066270222  0.000080482  0.066212056
     7.537725071  7.548625092 -7.553522243     0.066313004  0.066294918  0.000037688

  length of vectors
    13.061981740 13.082397179 13.071141431     0.093776052  0.093679160  0.093767969


 
 k-points in units of 2pi/SCALE and weight: KPOINTS generated by db_to_vasp         
   0.00000000  0.00000000  0.00000000       0.016
   0.00000073  0.01658243  0.01657241       0.031
   0.00000146  0.03316486  0.03314482       0.016
   0.01656756  0.00002012  0.01655301       0.031
   0.01656829  0.01660255  0.03312542       0.031
   0.01656902  0.03318498  0.04969783       0.031
   0.01656682 -0.01656231 -0.00001940       0.031
   0.03313511  0.00004024  0.03310603       0.016
   0.03313584  0.01662267  0.04967844       0.031
   0.03313658  0.03320510  0.06625085       0.016
   0.01657825  0.01657373  0.00000942       0.031
   0.01657898  0.03315616  0.01658183       0.031
   0.01657972  0.04973859  0.03315424       0.031
   0.01657752 -0.00000870 -0.01656299       0.031
   0.03314581  0.01659385  0.01656244       0.031
   0.03314654  0.03317628  0.03313485       0.031
   0.03314727  0.04975871  0.04970726       0.031
   0.03314507  0.00001142 -0.00000997       0.031
   0.04971336  0.01661397  0.03311545       0.031
   0.04971409  0.03319640  0.04968786       0.031
   0.04971483  0.04977883  0.06626027       0.031
   0.04971263  0.00003154  0.01654304       0.031
   0.00001070  0.01655361 -0.01654359       0.031
   0.00001143  0.03313604  0.00002882       0.031
   0.00001216  0.04971847  0.01660123       0.031
   0.00000996 -0.00002882 -0.03311600       0.031
   0.03315650  0.03314746  0.00001884       0.016
   0.03315723  0.04972989  0.01659125       0.031
   0.03315797  0.06631232  0.03316366       0.016
   0.04972406  0.03316758  0.01657186       0.031
   0.04972479  0.04975001  0.03314427       0.031
   0.04972552  0.06633244  0.04971668       0.031
   0.04972332  0.01658515 -0.00000055       0.031
   0.06629161  0.03318770  0.03312487       0.016
   0.06629235  0.04977013  0.04969728       0.031
   0.06629308  0.06635256  0.06626969       0.016
 
 k-points in reciprocal lattice and weights: KPOINTS generated by db_to_vasp         
   0.00000000  0.00000000  0.00000000       0.016
   0.25000000  0.00000000  0.00000000       0.031
   0.50000000  0.00000000  0.00000000       0.016
   0.00000000  0.25000000  0.00000000       0.031
   0.25000000  0.25000000  0.00000000       0.031
   0.50000000  0.25000000  0.00000000       0.031
  -0.25000000  0.25000000  0.00000000       0.031
   0.00000000  0.50000000  0.00000000       0.016
   0.25000000  0.50000000  0.00000000       0.031
   0.50000000  0.50000000  0.00000000       0.016
   0.00000000  0.00000000  0.25000000       0.031
   0.25000000  0.00000000  0.25000000       0.031
   0.50000000  0.00000000  0.25000000       0.031
  -0.25000000  0.00000000  0.25000000       0.031
   0.00000000  0.25000000  0.25000000       0.031
   0.25000000  0.25000000  0.25000000       0.031
   0.50000000  0.25000000  0.25000000       0.031
  -0.25000000  0.25000000  0.25000000       0.031
   0.00000000  0.50000000  0.25000000       0.031
   0.25000000  0.50000000  0.25000000       0.031
   0.50000000  0.50000000  0.25000000       0.031
  -0.25000000  0.50000000  0.25000000       0.031
   0.00000000 -0.25000000  0.25000000       0.031
   0.25000000 -0.25000000  0.25000000       0.031
   0.50000000 -0.25000000  0.25000000       0.031
  -0.25000000 -0.25000000  0.25000000       0.031
   0.00000000  0.00000000  0.50000000       0.016
   0.25000000  0.00000000  0.50000000       0.031
   0.50000000  0.00000000  0.50000000       0.016
   0.00000000  0.25000000  0.50000000       0.031
   0.25000000  0.25000000  0.50000000       0.031
   0.50000000  0.25000000  0.50000000       0.031
  -0.25000000  0.25000000  0.50000000       0.031
   0.00000000  0.50000000  0.50000000       0.016
   0.25000000  0.50000000  0.50000000       0.031
   0.50000000  0.50000000  0.50000000       0.016
 
 position of ions in fractional coordinates (direct lattice) 
   0.00196195  0.40281852  0.00485767
   0.40116029  0.00518148  0.79952984
   0.40182433  0.19763480  0.80141662
   0.39832344  0.60500710  0.59872686
   0.59837295  0.39674464  0.39709109
   0.79614564  0.99962865  0.19615759
   0.99507363  0.20316917  0.22112964
   0.20094813  0.80469444  0.00473158
   0.39378167  0.39740226  0.59796460
   0.80219120  0.20415256  0.80253046
   0.78904691  0.58602440  0.79773524
   0.00798158  0.01413430  0.01240642
   0.99225444  0.99190356  0.19308817
   0.99932668  0.00856184  0.40219150
   0.00119625  0.00092215  0.59925684
   0.00304298  0.00479683  0.80083832
   0.99839784  0.20518884  0.00082322
   0.17502809  0.19543683  0.39846233
   0.99947516  0.19623752  0.59287401
   0.00263122  0.19805050  0.79844989
   0.99893529  0.40276960  0.19724826
   0.99879644  0.39979729  0.39804572
   0.99409203  0.39876211  0.59776486
   0.99906596  0.39528673  0.80349116
   0.99917271  0.59598671  0.00090777
   0.99732104  0.60050672  0.19979912
   0.00147593  0.60061592  0.39847548
   0.00068111  0.59941908  0.59617807
   0.98864344  0.59208956  0.79334740
   0.00283059  0.80428164  0.01090310
   0.00048311  0.79942240  0.20426491
   0.00410074  0.80224303  0.40226879
   0.00231561  0.80238940  0.60012957
   0.01416215  0.80126558  0.80104690
   0.20241538  0.00849813  0.00409875
   0.20033538  0.00300676  0.20383231
   0.19640726  0.00153646  0.40261876
   0.20220873  0.00190563  0.60150154
   0.20396328  0.00298932  0.80060873
   0.19913229  0.20121269  0.00068490
   0.19636546  0.20000852  0.20246175
   0.20256862  0.19690729  0.60623165
   0.20272570  0.19821139  0.80112761
   0.19743219  0.39811392  0.00157363
   0.19647189  0.39902743  0.19790366
   0.20688146  0.41432379  0.40258076
   0.20009669  0.38942248  0.80135294
   0.20336755  0.59726363  0.01480605
   0.19706270  0.59824256  0.19859419
   0.19836557  0.60354235  0.39690833
   0.20435446  0.60357540  0.59276773
   0.19968137  0.80272778  0.20639431
   0.20061356  0.80322035  0.40251632
   0.20355050  0.80563302  0.60111119
   0.20056415  0.81026204  0.79554608
   0.40151017  0.00441441  0.00032763
   0.40462539  0.00571181  0.20525032
   0.39935150  0.00098019  0.40210695
   0.39962272  0.00022899  0.60163738
   0.40143741  0.20126783  0.99954951
   0.40344649  0.20119025  0.20086422
   0.39283973  0.19512171  0.39952312
   0.39828495  0.19514815  0.60371116
   0.40032217  0.39910055  0.00272888
   0.39787555  0.39871131  0.19685416
   0.39932492  0.39576091  0.80449249
   0.40333250  0.59914628  0.00598534
   0.40032168  0.60009636  0.20153889
   0.40046142  0.60388177  0.40032086
   0.40768766  0.59981994  0.79694630
   0.41896939  0.81633967  0.01637123
   0.40202988  0.80307350  0.20376367
   0.39954674  0.80248678  0.39959836
   0.40037555  0.80072102  0.59805595
   0.40125018  0.80999604  0.80012012
   0.59678092  0.99911828  0.99555028
   0.60635311  0.00088484  0.20049864
   0.60243156  0.99896125  0.40073521
   0.59609788  0.99786029  0.59605210
   0.59512242  0.00160965  0.79845798
   0.59615021  0.19739072  0.99636513
   0.60074924  0.19927725  0.19719452
[...]
   -.195E+03 -.139E+03 0.129E+02   0.195E+03 0.139E+03 -.132E+02   -.469E+00 -.248E+00 0.352E+00   0.287E-02 0.513E-02 -.209E-02
   0.156E+03 0.652E+02 -.106E+03   -.156E+03 -.649E+02 0.105E+03   0.837E+00 -.308E+00 0.538E+00   -.653E-02 0.100E-02 -.101E-02
   -.509E+02 -.619E+01 -.230E+02   0.509E+02 0.611E+01 0.227E+02   -.473E-01 0.718E-01 0.360E+00   -.201E-02 0.681E-03 -.232E-02
   -.912E+02 -.120E+03 0.705E+02   0.905E+02 0.119E+03 -.700E+02   0.664E+00 0.669E+00 -.461E+00   -.459E-04 0.161E-02 -.277E-02
   0.530E+02 0.863E+02 0.112E+03   -.524E+02 -.857E+02 -.112E+03   -.690E+00 -.585E+00 -.271E+00   0.274E-02 0.156E-02 0.894E-02
   -.502E+02 -.134E+02 0.135E+03   0.498E+02 0.134E+02 -.135E+03   0.442E+00 -.603E-02 -.720E+00   0.110E-02 0.683E-03 -.179E-02
   0.289E+02 -.935E+02 0.897E+01   -.288E+02 0.933E+02 -.903E+01   -.162E+00 0.163E+00 0.624E-01   0.566E-02 -.235E-03 -.684E-02
   -.486E+02 -.589E+02 -.166E+02   0.486E+02 0.588E+02 0.169E+02   -.429E-01 0.603E-01 -.243E+00   0.260E-03 0.137E-02 0.299E-02
   0.517E+01 -.507E+01 -.599E+02   -.516E+01 0.506E+01 0.599E+02   0.107E-01 0.323E-02 -.190E-01   -.597E-02 0.437E-02 -.397E-02
   -.667E+02 0.163E+02 0.366E+02   0.668E+02 -.166E+02 -.367E+02   -.975E-01 0.295E+00 0.104E+00   0.373E-02 -.403E-02 0.746E-03
   0.370E+02 -.847E+02 0.202E+02   -.365E+02 0.843E+02 -.202E+02   -.434E+00 0.406E+00 0.794E-02   -.475E-02 0.385E-03 -.202E-02
 -----------------------------------------------------------------------------------------------
   -.532E+00 -.433E+00 0.988E-01   0.668E-12 -.981E-12 -.368E-11   0.525E+00 0.433E+00 -.937E-01   0.193E-02 0.190E-02 -.383E-02
 
 
 POSITION                                       TOTAL-FORCE (eV/Angst)
 -----------------------------------------------------------------------------------
      3.06208     -2.99136      3.02263         0.004605      0.011639     -0.017129
      3.03982      9.02124     -2.97520         0.000697     -0.007168     -0.000154
      4.50157      7.58673     -1.52987        -0.003503     -0.003420      0.002629
      6.07479      2.95308      3.05370         0.002202     -0.002099      0.003438
      1.47410      4.51270      4.51115         0.000905     -0.003038      0.012074
      3.01799     -0.06681     12.07683         0.006011     -0.029150     -0.026981
     -4.30554      7.63807      7.36850         0.081820      0.135333     -0.096363
      4.59334     -4.52752      7.56142        -0.010116     -0.004668     -0.001303
      4.53641      4.48129      1.45612         0.027791      0.024744      0.039113
      1.53922     10.56495      1.52990         0.009931      0.009626     -0.007623
      4.48439      7.54504      4.35322         0.006383      0.003525     -0.001714
      0.13999      0.04707      0.07330         0.004216      0.002572     -0.012300
      1.45731      1.44717     13.52036        -0.026449      0.007998      0.008030
     -4.44162     10.50694      4.56206         0.033412     -0.052431      0.073761
      4.51497      4.52562     -4.51051        -0.002498     -0.023854      0.010272
      6.04975      6.03194     -5.98995         0.009192     -0.003686      0.000252
     -5.97598      5.98487      9.07292         0.025881      0.027098     -0.028387
      3.15833      2.85138     -0.21289        -0.220204      0.232440      0.232346
     -1.58895     10.52978      4.54132         0.002212     -0.023160     -0.003399
      7.49343      4.55100     -4.51439         0.004948     -0.000751     -0.007793
     -3.00820      5.97917      9.08660         0.000845      0.020070     -0.029878
     -1.51603      7.51632      7.54636         0.032562     -0.012629     -0.007163
      0.01707      8.99627      5.99448        -0.007761     -0.012648     -0.009321
      1.50403     10.61298      4.45176        -0.005261     -0.001952     -0.009510
     -3.03165      3.03933     12.03180        -0.003367      0.002484     -0.006220
     -1.48438      4.49258     10.54967         0.004545     -0.002686     -0.000129
      7.52560     -1.51788      1.54073         0.006192     -0.007385      0.002325
      9.01279     -0.02245      0.03234         0.000074     -0.004702      0.000024
      2.99155      8.97120      5.93724         0.003792      0.006694     -0.002125
      6.13113     -5.97176      6.01780        -0.004846      0.003810      0.006397
      7.56967     -4.49314      4.50281        -0.001692     -0.005815      0.001847
      9.05617     -2.99251      3.05578         0.012377     -0.013277      0.010450
     10.56216     -1.51350      1.54888         0.005694     -0.008992      0.008310
     11.97878      0.10097      0.11208        -0.003578     -0.005449      0.002419
     -1.43177      1.49310      1.55956        -0.005989     -0.007121     -0.000774
      0.04801      3.02661     -0.00632         0.003116      0.016897      0.015548
      1.56494      4.50866     -1.54859        -0.026981      0.012699     -0.009244
      3.02309      6.05091     -3.00432         0.004616     -0.007364      0.002576
      4.51885      7.55894     -4.48686         0.003449     -0.012702      0.004289
      0.02177     -0.01316      3.01714         0.009104     -0.006592     -0.008627
      1.55449      1.49821      1.46305        -0.003681      0.000380      0.003872
      4.52780      4.61632     -1.56350        -0.010619      0.003289      0.012883
      6.00553      6.07885     -3.02461         0.000847     -0.017594     -0.001182
      1.52740     -1.50663      4.48580        -0.000150     -0.005344     -0.015692
      3.02142     -0.03875      3.00248         0.006822      0.001735     -0.008399
      4.60115      1.46923      1.65055         0.000340      0.009239      0.010010
      7.47022      4.61635     -1.60095        -0.012490     -0.015659     -0.003816
      3.08545     -2.86633      5.93579        -0.007967     -0.006664     -0.011206
      4.52574     -1.53392      4.50740        -0.004500      0.001447     -0.016171
      6.05075     -0.06713      3.05931         0.002195     -0.001063     -0.011832
      7.48216      1.45625      1.62529        -0.005663      0.003730     -0.008070
      6.10813     -2.99994      6.01374        -0.014390      0.001120     -0.006092
      7.58313     -1.51618      4.54308        -0.000053      0.000168     -0.007104
      9.07614     -0.01314      3.08337         0.003653     -0.007176     -0.000761
     10.59920      1.39709      1.62717        -0.004585     -0.007070     -0.003196
     -2.99278      2.99679      3.05843        -0.002235     -0.012120      0.001045
     -1.46183      4.55737      1.54384        -0.010158     -0.002810     -0.001882
      0.02609      6.03934     -0.01865        -0.011814      0.007440     -0.006378
      1.52238      7.55324     -1.52944         0.001543     -0.000067     -0.002431
      6.02538      9.05200     -3.00193         0.001356     -0.007811      0.000992
     -0.01063      3.03876      3.04552        -0.008353     -0.003522      0.008395
      1.52101      4.50422      1.41910        -0.007035      0.003415      0.016293
      3.01925      6.08642     -0.08198        -0.016508     -0.038120      0.013451
      0.01317      0.02457      6.01440        -0.002906     -0.009547     -0.003852
      1.49195      1.47444      4.52668        -0.000504     -0.006399      0.006210
      6.03896      6.09449     -0.07450         0.002338      0.000065     -0.005188
      1.52485     -1.43926      7.52446        -0.000912     -0.008527     -0.007327
      3.02876      0.00702      6.03182        -0.003554     -0.005954     -0.002485
      4.55464      1.48001      4.55998        -0.007517      0.001435      0.001983
      7.45913      4.55916      1.58785        -0.004040     -0.007953     -0.007826
      3.12445     -2.88359      9.20548        -0.008283     -0.011608     -0.004546
      4.56461     -1.49656      7.56201        -0.004445     -0.000941     -0.009580
      6.05506     -0.03257      6.05961        -0.003436      0.004508     -0.010424
      7.53140      1.48510      4.55346        -0.002981      0.001405     -0.006778
      9.11791      2.94694      3.10386        -0.001798     -0.008286     -0.005043
     10.54353      4.46801      4.53145        -0.001759     -0.009787     -0.002682
     -3.05570      6.07913      3.06435         0.002623     -0.017280     -0.013510
      6.01617      0.02177      9.06582         0.005463     -0.001318     -0.012522
      7.52788      1.45670      7.53441         0.005740      0.003087     -0.008585
      1.54174     10.50274     -1.53155         0.004124      0.002360      0.000037
      4.50341     10.52552     -1.53897        -0.000927     -0.003134      0.004575
     -1.54097      4.51331      4.54652         0.004265     -0.010391     -0.004932
      1.48512      7.54567      1.47195         0.005168      0.000377     -0.005855
      3.06983      8.97968     -0.04660         0.002362     -0.008168     -0.001571
      5.99509      9.04329     -0.05988         0.000030     -0.001896     -0.000111
     -0.01079      3.01551      5.99116         0.000351     -0.006581      0.003794
      2.89043      5.97017      2.97392         0.001152      0.008488      0.016028
      4.51236      7.52412      1.47011         0.001019      0.002197     -0.001167
      0.00222      0.00559      8.98359         0.005144     -0.002212     -0.002338
      1.50801      1.47789      7.49865         0.000781     -0.005248      0.005152
      3.01422      2.98870      6.02607        -0.002739     -0.004322      0.004592
      4.51158      4.41545      4.44923         0.001187     -0.004150      0.015213
      6.12878      6.00606      2.93680         0.020294      0.003553      0.005592
      1.53805     -1.52822     10.59063         0.006851     -0.006106     -0.002539
      3.03700     -0.01292      9.02413         0.001301     -0.008473     -0.007324
      4.55200      1.49337      7.53589         0.002530      0.002029     -0.003711
      6.04999      2.95411      6.07513         0.002334      0.003269      0.002187
      7.57224      4.37691      4.47971         0.002951     -0.002693     -0.000920
     -5.97320      6.01538      5.97708         0.017853      0.016527     -0.000151
      4.50690      1.48951     10.52472         0.010813     -0.022225     -0.014261
     -1.49647     10.56214      1.53244         0.011193      0.002808     -0.002668
      0.07154     12.02774      0.02919         0.014556      0.015980      0.002446
     -4.48961      4.53659      7.49806         0.010832      0.019808     -0.009524
     -3.03115      5.89735      5.99629         0.009045     -0.001367     -0.006345
     -1.70207      7.64117      4.68899         0.004916     -0.017176     -0.014290
     -0.09540      9.06826      3.07705         0.008373     -0.004271     -0.011270
      4.50172     10.57408      1.48537         0.001782      0.007590     -0.004848
     -1.54004      4.50349      7.54720         0.004768     -0.003173      0.003652
     -0.04939      6.03491      6.04730         0.010827     -0.012033     -0.003896
      1.45049      7.54885      4.52356         0.004379      0.000430     -0.001306
      2.98572      9.04896      2.98302         0.004436      0.003452     -0.004741
     -1.49495      1.56471     10.46684         0.007866      0.002839      0.002651
     -0.02845      3.01384      9.01035         0.006623     -0.006982      0.008875
      2.92098      5.97474      6.00116         0.006121     -0.001286      0.006363
      0.06981      0.01183     12.00366         0.009593     -0.003989     -0.002186
      3.03366      3.01246      9.07064         0.005670     -0.005062      0.012228
      4.50009      4.42372      7.63672         0.005523     -0.001817      0.007200
      5.96166      2.89484     -0.11115        -0.065302     -0.027403     -0.022469
      2.96747      2.97832      3.02571        -0.008771      0.008707      0.000000
     -0.03615      6.05083      3.04399         0.002620     -0.003093     -0.003499
      1.48705      4.50866      7.54896         0.005772     -0.006882      0.008725
      1.53817      1.49848     10.54916         0.013976     -0.003680      0.007383
      9.06894      3.09682      0.04209        -0.023303     -0.003562     -0.006337
      6.02529      6.03633      6.09047         0.006756      0.002224      0.001028
 -----------------------------------------------------------------------------------
    total drift:                               -0.004867      0.002846      0.001252


--------------------------------------------------------------------------------------------------------



  FREE ENERGIE OF THE ION-ELECTRON SYSTEM (eV)
  ---------------------------------------------------
  free  energy   TOTEN  =     -1122.67296732 eV

  energy  without entropy=    -1122.65285489  energy(sigma->0) =    -1122.66626318
 


--------------------------------------------------------------------------------------------------------


    POTLOK:  cpu time      0.4969: real time      0.1798


--------------------------------------------------------------------------------------------------------




--------------------------------------------------------------------------------------------------------


     LOOP+:  cpu time   5162.7525: real time   5161.2010
    4ORBIT:  cpu time      0.0000: real time      0.0000



 total charge

# of ion       s       p       d       tot
------------------------------------------
    1        0.420   6.318   4.205  10.943
    2        0.421   6.330   4.187  10.937
    3        0.421   6.332   4.194  10.947
    4        0.413   6.308   4.229  10.950
    5        0.411   6.327   4.211  10.949
    6        0.416   6.308   4.176  10.899
    7        0.352   6.262   2.099   8.712
    8        0.358   6.282   2.105   8.745
    9        0.360   6.308   2.135   8.803
   10        0.365   6.302   2.155   8.822
   11        0.363   6.276   2.167   8.806
   12        0.353   6.215   3.092   9.660
   13        0.366   6.234   3.076   9.676
   14        0.347   6.219   3.033   9.599
   15        0.356   6.241   3.043   9.640
   16        0.350   6.227   3.034   9.610
   17        0.351   6.228   3.038   9.617
   18        0.342   6.210   3.007   9.559
   19        0.352   6.219   3.034   9.605
   20        0.358   6.234   3.061   9.652
   21        0.356   6.238   3.048   9.641
   22        0.354   6.225   3.018   9.597
   23        0.366   6.229   3.106   9.701
   24        0.349   6.226   3.029   9.604
   25        0.350   6.228   3.029   9.607
   26        0.357   6.239   3.058   9.655
   27        0.355   6.243   3.062   9.660
   28        0.347   6.230   3.035   9.611
   29        0.348   6.214   3.059   9.621
   30        0.346   6.218   3.026   9.590
   31        0.357   6.235   3.098   9.689
   32        0.348   6.241   3.035   9.623
   33        0.353   6.238   3.057   9.648
   34        0.351   6.211   3.072   9.635
   35        0.353   6.226   3.056   9.635
   36        0.353   6.229   3.063   9.644
   37        0.353   6.237   3.034   9.625
   38        0.359   6.240   3.076   9.675
   39        0.357   6.240   3.070   9.667
   40        0.355   6.237   3.052   9.645
   41        0.351   6.236   3.064   9.652
   42        0.369   6.246   3.093   9.709
   43        0.358   6.242   3.078   9.678
   44        0.357   6.236   3.067   9.660
   45        0.352   6.233   3.067   9.652
   46        0.368   6.252   3.078   9.698
   47        0.353   6.227   3.070   9.650
   48        0.357   6.219   3.099   9.675
   49        0.359   6.237   3.086   9.682
   50        0.359   6.236   3.092   9.687
   51        0.354   6.233   3.057   9.644
   52        0.353   6.233   3.047   9.633
   53        0.358   6.241   3.068   9.667
   54        0.357   6.241   3.055   9.654
   55        0.359   6.222   3.125   9.707
   56        0.352   6.235   3.039   9.626
   57        0.353   6.239   3.066   9.658
   58        0.353   6.236   3.052   9.640
   59        0.359   6.240   3.072   9.671
   60        0.357   6.243   3.055   9.655
   61        0.348   6.241   3.033   9.622
   62        0.348   6.237   3.057   9.642
   63        0.357   6.235   3.061   9.653
   64        0.359   6.240   3.073   9.671
   65        0.355   6.242   3.080   9.677
   66        0.352   6.232   3.060   9.644
   67        0.352   6.229   3.041   9.621
   68        0.358   6.242   3.049   9.649
   69        0.353   6.246   3.041   9.641
   70        0.350   6.223   3.080   9.653
   71        0.358   6.223   3.096   9.677
   72        0.354   6.230   3.062   9.646
   73        0.357   6.241   3.058   9.656
   74        0.358   6.244   3.052   9.654
   75        0.353   6.235   3.049   9.637
   76        0.363   6.241   3.087   9.691
   77        0.356   6.243   3.070   9.669
   78        0.355   6.237   3.076   9.668
   79        0.356   6.232   3.065   9.652
   80        0.355   6.239   3.045   9.638
   81        0.359   6.245   3.064   9.668
   82        0.357   6.240   3.099   9.696
   83        0.352   6.235   3.063   9.649
   84        0.359   6.240   3.064   9.664
   85        0.357   6.244   3.035   9.636
   86        0.354   6.245   3.052   9.651
   87        0.347   6.230   3.048   9.626
   88        0.353   6.233   3.041   9.627
   89        0.354   6.240   3.068   9.663
   90        0.349   6.242   3.050   9.641
   91        0.350   6.243   3.044   9.637
   92        0.347   6.229   3.053   9.629
   93        0.353   6.222   3.094   9.669
   94        0.353   6.236   3.056   9.645
   95        0.358   6.243   3.075   9.676
   96        0.356   6.241   3.050   9.647
   97        0.354   6.231   3.061   9.645
   98        0.354   6.232   3.052   9.638
   99        0.351   6.230   3.033   9.613
  100        0.363   6.236   3.073   9.673
  101        0.356   6.234   3.064   9.654
  102        0.352   6.219   3.074   9.644
  103        0.357   6.232   3.079   9.668
  104        0.374   6.239   3.119   9.732
  105        0.336   6.210   3.014   9.560
  106        0.350   6.235   3.036   9.620
  107        0.355   6.236   3.052   9.643
  108        0.355   6.239   3.056   9.650
  109        0.349   6.246   3.040   9.635
  110        0.356   6.231   3.107   9.695
  111        0.356   6.225   3.086   9.668
  112        0.351   6.230   3.053   9.634
  113        0.354   6.247   3.085   9.686
  114        0.345   6.231   3.015   9.592
  115        0.355   6.226   3.116   9.696
  116        0.355   6.246   3.097   9.698
  117        0.351   6.222   3.079   9.652
  118        2.435   6.236   3.390  12.061
  119        2.449   6.265   3.471  12.184
  120        2.441   6.273   3.411  12.125
  121        2.446   6.273   3.453  12.172
  122        2.446   6.274   3.439  12.159
  123        2.257   5.973   1.884  10.113
  124        2.262   5.967   1.905  10.134
--------------------------------------------------
tot         58.597 773.407 381.3311213.335
 

 total amount of memory used by VASP MPI-rank0  7396245. kBytes
=======================================================================

   base      :      30000. kBytes
   nonl-proj :    1292066. kBytes
   fftplans  :      67629. kBytes
   grid      :     189621. kBytes
   one-center:       1928. kBytes
   wavefun   :    5815001. kBytes
 
  
  
 General timing and accounting informations for this job:
 ========================================================
  
                  Total CPU time used (sec):     5485.999
                            User time (sec):     4823.723
                          System time (sec):      662.275
                         Elapsed time (sec):     5478.148
  
                   Maximum memory used (kb):     9719116.
                   Average memory used (kb):          N/A
  
                          Minor page faults:      1651873
                          Major page faults:           11
                 Voluntary context switches:       764756
