 vasp.6.4.2 20Jul23 (build Sep 20 2024 16:56:05) complex                         
 executed on              LinuxNV date 2025.04.25  15:10:37
 running    4 mpi-ranks, with    8 threads/rank, on    1 nodes
 distrk:  each k-point on    4 cores,    1 groups
 distr:  one band on NCORE=   1 cores,    4 groups
 OpenACC runtime initialized ...    4 GPUs detected


--------------------------------------------------------------------------------------------------------


 INCAR:
   ENCUT = 520.000000
   POTIM = 0.200000
   SIGMA = 0.200000
   EDIFF = 1.00e-06
   EDIFFG = -1.00e-02
   ALGO = Normal
   GGA = PE
   PREC = Accurate
   IBRION = 2
   ISIF = 2
   ISMEAR = 1
   LORBIT = 11
   NELM = 100
   NSW = -1
   LCHARG = .TRUE.
   LWAVE = .FALSE.
   LREAL = .FALSE.

 POTCAR:    PAW_PBE Cr_pv 02Aug2007               
 POTCAR:    PAW_PBE Ti_pv 07Sep2000               
 POTCAR:    PAW_PBE V_pv 07Sep2000                
 POTCAR:    PAW_PBE W_sv 04Sep2015                
 POTCAR:    PAW_PBE Zr_sv 04Jan2005               
 POTCAR:    PAW_PBE Cr_pv 02Aug2007               
   SHA256 =  c9a7df34d3cdbacf1090e328ef39c0b420964e11c23f63548d1ac9dd218cdba0 Cr_pv/POTCAR          
   COPYR  = (c) Copyright 02Aug2007 Georg Kresse                                                    
   COPYR  = This file is part of the software VASP. Any use, copying, and all other rights are regul
   COPYR  = If you do not have a valid VASP license, you may not use, copy or distribute this file. 
   VRHFIN =Cr : p6d5s1                                                                              
   LEXCH  = PE                                                                                      
   EATOM  =  1647.9177 eV,  121.1185 Ry                                                             
                                                                                                    
   TITEL  = PAW_PBE Cr_pv 02Aug2007                                                                 
   LULTRA =        F    use ultrasoft PP ?                                                          
   IUNSCR =        1    unscreen: 0-lin 1-nonlin 2-no                                               
   RPACOR =    2.080    partial core radius                                                         
   POMASS =   51.996; ZVAL   =   12.000    mass and valenz                                          
   RCORE  =    2.300    outmost cutoff radius                                                       
   RWIGS  =    2.500; RWIGS  =    1.323    wigner-seitz radius (au A)                               
   ENMAX  =  265.681; ENMIN  =  199.261 eV                                                          
   ICORE  =        3    local potential                                                             
   LCOR   =        T    correct aug charges                                                         
   LPAW   =        T    paw PP                                                                      
   EAUG   =  519.424                                                                                
   DEXC   =    0.000                                                                                
   RMAX   =    2.356    core radius for proj-oper                                                   
   RAUG   =    1.300    factor for augmentation sphere                                              
   RDEP   =    2.447    radius for radial grids                                                     
   RDEPT  =    1.882    core radius for aug-charge                                                  
                                                                                                    
   Atomic configuration                                                                             
    8 entries                                                                                       
     n  l   j            E        occ.                                                              
     1  0  0.50     -5880.4963   2.0000                                                             
     2  0  0.50      -667.0865   2.0000                                                             
     2  1  1.50      -560.6250   6.0000                                                             
     3  0  0.50       -73.9860   2.0000                                                             
     3  1  1.50       -45.4378   6.0000                                                             
     3  2  2.50        -2.9137   5.0000                                                             
     4  0  0.50        -4.0071   1.0000                                                             
     4  3  2.50        -1.3606   0.0000                                                             
   Description                                                                                      
     l       E           TYP  RCUT    TYP  RCUT                                                     
     1    -45.4377911     23  2.000                                                                 
     1      1.3605826     23  2.000                                                                 
     2     -2.9136672     23  2.300                                                                 
     2     -4.2742498     23  2.300                                                                 
     0     -4.0071320     23  2.300                                                                 
     0      9.4498803     23  2.300                                                                 
     3      2.7211652     23  2.300                                                                 
  local pseudopotential read in
  partial core-charges read in
  partial kinetic energy density read in
  atomic valenz-charges read in
  non local Contribution for L=            1  read in
    real space projection operators read in
  non local Contribution for L=            1  read in
    real space projection operators read in
  non local Contribution for L=            2  read in
    real space projection operators read in
  non local Contribution for L=            2  read in
    real space projection operators read in
  non local Contribution for L=            0  read in
    real space projection operators read in
  non local Contribution for L=            0  read in
    real space projection operators read in
    PAW grid and wavefunctions read in
 
   number of l-projection  operators is LMAX  =            6
   number of lm-projection operators is LMMAX =           18
 
 POTCAR:    PAW_PBE Ti_pv 07Sep2000               
   SHA256 =  f757a1b2c6d082f4c628fa3d987464a8763bf92e53844ac0500b0e2ddc9ce5c0 Ti_pv/POTCAR          
   COPYR  = (c) Copyright 07Sep2000 Georg Kresse                                                    
   COPYR  = This file is part of the software VASP. Any use, copying, and all other rights are regul
   COPYR  = If you do not have a valid VASP license, you may not use, copy or distribute this file. 
   VRHFIN =Ti: d3 s1                                                                                
   LEXCH  = PE                                                                                      
   EATOM  =  1042.5995 eV,   76.6289 Ry                                                             
                                                                                                    
   TITEL  = PAW_PBE Ti_pv 07Sep2000                                                                 
   LULTRA =        F    use ultrasoft PP ?                                                          
   IUNSCR =        1    unscreen: 0-lin 1-nonlin 2-no                                               
   RPACOR =    2.200    partial core radius                                                         
   POMASS =   47.880; ZVAL   =   10.000    mass and valenz                                          
   RCORE  =    2.500    outmost cutoff radius                                                       
   RWIGS  =    2.500; RWIGS  =    1.323    wigner-seitz radius (au A)                               
   ENMAX  =  222.335; ENMIN  =  166.751 eV                                                          
   RCLOC  =    1.701    cutoff for local pot                                                        
   LCOR   =        T    correct aug charges                                                         
   LPAW   =        T    paw PP                                                                      
   EAUG   =  482.848                                                                                
   DEXC   =    0.000                                                                                
   RMAX   =    2.564    core radius for proj-oper                                                   
   RAUG   =    1.300    factor for augmentation sphere                                              
   RDEP   =    2.538    radius for radial grids                                                     
   RDEPT  =    1.952    core radius for aug-charge                                                  
                                                                                                    
   Atomic configuration                                                                             
    8 entries                                                                                       
     n  l   j            E        occ.                                                              
     1  0  0.50     -4865.3608   2.0000                                                             
     2  0  0.50      -533.1368   2.0000                                                             
     2  1  1.50      -440.5031   6.0000                                                             
     3  0  0.50       -59.3186   2.0000                                                             
     3  1  1.50       -35.7012   6.0000                                                             
     3  2  2.50        -1.9157   3.0000                                                             
     4  0  0.50        -3.7291   1.0000                                                             
     4  3  2.50        -1.3606   0.0000                                                             
   Description                                                                                      
     l       E           TYP  RCUT    TYP  RCUT                                                     
     1    -35.7012140     23  2.300                                                                 
     1     -1.3605826     23  2.300                                                                 
     2     -1.9156996     23  2.500                                                                 
     2     -0.4063033     23  2.500                                                                 
     0     -3.7290856     23  2.500                                                                 
     0     20.4087390     23  2.500                                                                 
  local pseudopotential read in
  partial core-charges read in
  partial kinetic energy density read in
  atomic valenz-charges read in
  non local Contribution for L=            1  read in
    real space projection operators read in
  non local Contribution for L=            1  read in
    real space projection operators read in
  non local Contribution for L=            2  read in
    real space projection operators read in
  non local Contribution for L=            2  read in
    real space projection operators read in
  non local Contribution for L=            0  read in
    real space projection operators read in
  non local Contribution for L=            0  read in
    real space projection operators read in
    PAW grid and wavefunctions read in
 
   number of l-projection  operators is LMAX  =            6
   number of lm-projection operators is LMMAX =           18
 
 POTCAR:    PAW_PBE V_pv 07Sep2000                
   SHA256 =  1175d3c8cb4ffd1d150a520fa74fae5c3ec72c0849b5615a94a5372dd2cf07f7 V_pv/POTCAR           
   COPYR  = (c) Copyright 07Sep2000 Georg Kresse                                                    
   COPYR  = This file is part of the software VASP. Any use, copying, and all other rights are regul
   COPYR  = If you do not have a valid VASP license, you may not use, copy or distribute this file. 
   VRHFIN =V: p6 d4 s1                                                                              
   LEXCH  = PE                                                                                      
   EATOM  =  1321.6206 eV,   97.1364 Ry                                                             
                                                                                                    
   TITEL  = PAW_PBE V_pv 07Sep2000                                                                  
   LULTRA =        F    use ultrasoft PP ?                                                          
   IUNSCR =        1    unscreen: 0-lin 1-nonlin 2-no                                               
   RPACOR =    1.700    partial core radius                                                         
   POMASS =   50.941; ZVAL   =   11.000    mass and valenz                                          
   RCORE  =    2.300    outmost cutoff radius                                                       
   RWIGS  =    2.300; RWIGS  =    1.217    wigner-seitz radius (au A)                               
   ENMAX  =  263.673; ENMIN  =  197.755 eV                                                          
   RCLOC  =    1.779    cutoff for local pot                                                        
   LCOR   =        T    correct aug charges                                                         
   LPAW   =        T    paw PP                                                                      
   EAUG   =  598.473                                                                                
   DEXC   =    0.000                                                                                
   RMAX   =    2.359    core radius for proj-oper                                                   
   RAUG   =    1.300    factor for augmentation sphere                                              
   RDEP   =    2.430    radius for radial grids                                                     
   RDEPT  =    1.700    core radius for aug-charge                                                  
                                                                                                    
   Atomic configuration                                                                             
    8 entries                                                                                       
     n  l   j            E        occ.                                                              
     1  0  0.50     -5360.7193   2.0000                                                             
     2  0  0.50      -598.4546   2.0000                                                             
     2  1  1.50      -499.0155   6.0000                                                             
     3  0  0.50       -66.5711   2.0000                                                             
     3  1  1.50       -40.5282   6.0000                                                             
     3  2  2.50        -2.4291   4.0000                                                             
     4  0  0.50        -3.8743   1.0000                                                             
     4  3  2.50        -1.3606   0.0000                                                             
   Description                                                                                      
     l       E           TYP  RCUT    TYP  RCUT                                                     
     1    -40.5282431     23  2.000                                                                 
     1      5.4423304     23  2.000                                                                 
     2     -2.4290905     23  2.300                                                                 
     2     -1.0472488     23  2.300                                                                 
     0     -3.8742754     23  2.300                                                                 
     0     27.2116520     23  2.300                                                                 
  local pseudopotential read in
  partial core-charges read in
  partial kinetic energy density read in
  atomic valenz-charges read in
  non local Contribution for L=            1  read in
    real space projection operators read in
  non local Contribution for L=            1  read in
    real space projection operators read in
  non local Contribution for L=            2  read in
    real space projection operators read in
  non local Contribution for L=            2  read in
    real space projection operators read in
  non local Contribution for L=            0  read in
    real space projection operators read in
  non local Contribution for L=            0  read in
    real space projection operators read in
    PAW grid and wavefunctions read in
 
   number of l-projection  operators is LMAX  =            6
   number of lm-projection operators is LMMAX =           18
 
 POTCAR:    PAW_PBE W_sv 04Sep2015                
   SHA256 =  931c2d770f65867ef30f3db3421922900fc0890ebac5c3e12f63b6a2064023d7 W_sv/POTCAR           
   COPYR  = (c) Copyright 04Sep2015 Georg Kresse                                                    
   COPYR  = This file is part of the software VASP. Any use, copying, and all other rights are regul
   COPYR  = If you do not have a valid VASP license, you may not use, copy or distribute this file. 
   VRHFIN =W : 5p6s5d                                                                               
   LEXCH  = PE                                                                                      
   EATOM  =  1865.5791 eV,  137.1162 Ry                                                             
                                                                                                    
   TITEL  = PAW_PBE W_sv 04Sep2015                                                                  
   LULTRA =        F    use ultrasoft PP ?                                                          
   IUNSCR =        1    unscreen: 0-lin 1-nonlin 2-no                                               
   RPACOR =    2.330    partial core radius                                                         
   POMASS =  183.850; ZVAL   =   14.000    mass and valenz                                          
   RCORE  =    2.500    outmost cutoff radius                                                       
   RWIGS  =    2.750; RWIGS  =    1.455    wigner-seitz radius (au A)                               
   ENMAX  =  223.057; ENMIN  =  167.293 eV                                                          
   ICORE  =        3    local potential                                                             
   LCOR   =        T    correct aug charges                                                         
   LPAW   =        T    paw PP                                                                      
   EAUG   =  373.438                                                                                
   DEXC   =    0.000                                                                                
   RMAX   =    2.565    core radius for proj-oper                                                   
   RAUG   =    1.300    factor for augmentation sphere                                              
   RDEP   =    2.539    radius for radial grids                                                     
   RDEPT  =    2.126    core radius for aug-charge                                                  
                                                                                                    
   Atomic configuration                                                                             
   15 entries                                                                                       
     n  l   j            E        occ.                                                              
     1  0  0.50    -69465.5834   2.0000                                                             
     2  0  0.50    -11986.2640   2.0000                                                             
     2  1  1.50    -10479.8613   6.0000                                                             
     3  0  0.50     -2759.0756   2.0000                                                             
     3  1  1.50     -2313.1855   6.0000                                                             
     3  2  2.50     -1801.1183  10.0000                                                             
     4  0  0.50      -567.6789   2.0000                                                             
     4  1  1.50      -421.4692   6.0000                                                             
     4  2  2.50      -236.3471  10.0000                                                             
     4  3  3.50       -31.2665  14.0000                                                             
     5  0  0.50       -77.1084   2.0000                                                             
     6  0  0.50        -5.1438   1.0000                                                             
     5  1  1.50       -41.3856   6.0000                                                             
     5  2  2.50        -3.3185   5.0000                                                             
     5  3  2.50        -1.3606   0.0000                                                             
   Description                                                                                      
     l       E           TYP  RCUT    TYP  RCUT                                                     
     0    -77.1084470     23  2.100                                                                 
     0     -5.1437956     23  2.300                                                                 
     1    -41.3855615     23  2.500                                                                 
     1     -2.7211652     23  2.500                                                                 
     2     -3.3185025     23  2.500                                                                 
     2     -1.5965151     23  2.500                                                                 
     3     -1.3605826     23  2.500                                                                 
  local pseudopotential read in
  partial core-charges read in
  partial kinetic energy density read in
  kinetic energy density of atom read in
  atomic valenz-charges read in
  non local Contribution for L=            0  read in
    real space projection operators read in
  non local Contribution for L=            0  read in
    real space projection operators read in
  non local Contribution for L=            1  read in
    real space projection operators read in
  non local Contribution for L=            1  read in
    real space projection operators read in
  non local Contribution for L=            2  read in
    real space projection operators read in
  non local Contribution for L=            2  read in
    real space projection operators read in
    PAW grid and wavefunctions read in
 
   number of l-projection  operators is LMAX  =            6
   number of lm-projection operators is LMMAX =           18
 
 POTCAR:    PAW_PBE Zr_sv 04Jan2005               
   SHA256 =  25aed69cb10325f9d37c5c68912b61a17387d1f8e4f1d804860ffa10c8a4bf76 Zr_sv/POTCAR          
   COPYR  = (c) Copyright 04Jan2005 Georg Kresse                                                    
   COPYR  = This file is part of the software VASP. Any use, copying, and all other rights are regul
   COPYR  = If you do not have a valid VASP license, you may not use, copy or distribute this file. 
   VRHFIN =Zr: 4s4p5s4d                                                                             
   LEXCH  = PE                                                                                      
   EATOM  =  1284.2219 eV,   94.3876 Ry                                                             
                                                                                                    
   TITEL  = PAW_PBE Zr_sv 04Jan2005                                                                 
   LULTRA =        F    use ultrasoft PP ?                                                          
   IUNSCR =        1    unscreen: 0-lin 1-nonlin 2-no                                               
   RPACOR =    2.200    partial core radius                                                         
   POMASS =   91.224; ZVAL   =   12.000    mass and valenz                                          
   RCORE  =    2.500    outmost cutoff radius                                                       
   RWIGS  =    3.070; RWIGS  =    1.625    wigner-seitz radius (au A)                               
   ENMAX  =  229.898; ENMIN  =  172.424 eV                                                          
   ICORE  =        3    local potential                                                             
   LCOR   =        T    correct aug charges                                                         
   LPAW   =        T    paw PP                                                                      
   EAUG   =  461.257                                                                                
   DEXC   =    0.000                                                                                
   RMAX   =    2.561    core radius for proj-oper                                                   
   RAUG   =    1.300    factor for augmentation sphere                                              
   RDEP   =    2.597    radius for radial grids                                                     
   RDEPT  =    2.007    core radius for aug-charge                                                  
                                                                                                    
   Atomic configuration                                                                             
   11 entries                                                                                       
     n  l   j            E        occ.                                                              
     1  0  0.50    -17820.0161   2.0000                                                             
     2  0  0.50     -2467.0882   2.0000                                                             
     2  1  1.50     -2199.6095   6.0000                                                             
     3  0  0.50      -402.4863   2.0000                                                             
     3  1  1.50      -315.3675   6.0000                                                             
     3  2  2.50      -172.4472  10.0000                                                             
     4  0  0.50       -52.4146   2.0000                                                             
     5  0  0.50        -3.8421   1.0000                                                             
     4  1  1.50       -30.5054   6.0000                                                             
     4  2  2.50        -2.3341   3.0000                                                             
     4  3  2.50        -1.3606   0.0000                                                             
   Description                                                                                      
     l       E           TYP  RCUT    TYP  RCUT                                                     
     0    -52.4145962     23  2.200                                                                 
     0     -3.8421270     23  2.500                                                                 
     1    -30.5053914     23  2.200                                                                 
     1     20.4087390     23  2.200                                                                 
     2     -2.3340816     23  2.500                                                                 
     2     -0.6120942     23  2.500                                                                 
     3     -4.0817478     23  2.500                                                                 
  local pseudopotential read in
  partial core-charges read in
  partial kinetic energy density read in
  atomic valenz-charges read in
  non local Contribution for L=            0  read in
    real space projection operators read in
  non local Contribution for L=            0  read in
    real space projection operators read in
  non local Contribution for L=            1  read in
    real space projection operators read in
  non local Contribution for L=            1  read in
    real space projection operators read in
  non local Contribution for L=            2  read in
    real space projection operators read in
  non local Contribution for L=            2  read in
    real space projection operators read in
    PAW grid and wavefunctions read in
 
   number of l-projection  operators is LMAX  =            6
   number of lm-projection operators is LMMAX =           18
 
 -----------------------------------------------------------------------------
|                                                                             |
|               ----> ADVICE to this user running VASP <----                  |
|                                                                             |
|     You have a (more or less) 'large supercell' and for larger cells it     |
|     might be more efficient to use real-space projection operators.         |
|     Therefore, try LREAL= Auto in the INCAR file.                           |
|     Mind: For very accurate calculation, you might also keep the            |
|     reciprocal projection scheme (i.e. LREAL=.FALSE.).                      |
|                                                                             |
 -----------------------------------------------------------------------------

  PAW_PBE Cr_pv 02Aug2007               :
 energy of atom  1       EATOM=-1647.9177
 kinetic energy error for atom=    0.0057 (will be added to EATOM!!)
  PAW_PBE Ti_pv 07Sep2000               :
 energy of atom  2       EATOM=-1042.5995
 kinetic energy error for atom=    0.0019 (will be added to EATOM!!)
  PAW_PBE V_pv 07Sep2000                :
 energy of atom  3       EATOM=-1321.6206
 kinetic energy error for atom=    0.0054 (will be added to EATOM!!)
  PAW_PBE W_sv 04Sep2015                :
 energy of atom  4       EATOM=-1865.5791
 kinetic energy error for atom=    0.0026 (will be added to EATOM!!)
  PAW_PBE Zr_sv 04Jan2005               :
 energy of atom  5       EATOM=-1284.2219
 kinetic energy error for atom=    0.0043 (will be added to EATOM!!)
 
 
 POSCAR: Cr Ti V  W  Zr
  positions in cartesian coordinates
  No initial velocities read in
 exchange correlation table for  LEXCH =        8
   RHO(1)=    0.500       N(1)  =     2000
   RHO(2)=  100.500       N(2)  =     4000
 


--------------------------------------------------------------------------------------------------------


 ion  position               nearest neighbor table
   1  0.999  1.000  0.196- 118 2.52  35 2.53  17 2.54 103 2.54  22 2.54  40 2.57  18 2.60  45 2.61
                            23 2.94 102 2.98  41 2.98  34 3.00 119 3.02  44 3.03
   2  0.394  0.197  0.194-  39 2.51  66 2.56  44 2.56  63 2.59  71 2.60  67 2.61   3 2.63  14 2.64
                            62 2.96  43 2.99  40 3.02  12 3.04  13 3.07
   3  0.593  0.196  0.193-  62 2.50 111 2.54  84 2.54  87 2.55  13 2.61   2 2.63  12 2.71 107 2.72
                            83 2.93  63 3.00  66 3.02  14 3.10 124 3.17
   4  0.800  0.400  0.801- 109 2.46  88 2.49 112 2.49  31 2.54 108 2.62 117 2.62  92 2.62  30 2.63
                            33 3.00  16 3.00  91 3.02 113 3.02
   5  0.999  0.602  0.196-  31 2.63  32 2.65  35 2.68  59 2.68 114 2.68 109 2.68  54 2.69  27 2.71
                            58 2.95  36 2.98 110 2.98  55 2.98 113 3.01  26 3.04
   6  0.990  0.595  0.597- 116 2.64  32 2.68  33 2.68  29 2.69 111 2.70  37 2.70  61 2.74   8 2.82
                           115 2.96 112 2.99
   7  0.199  0.001  0.599-  46 2.63  60 2.64  19 2.67  69 2.67  41 2.68  36 2.68  64 2.68  42 2.70
                            37 2.98  59 2.98  68 2.98  47 3.01  65 3.04
   8  0.206  0.597  0.597-  82 2.65  28 2.65  51 2.66  60 2.68  55 2.69  56 2.73  10 2.82   6 2.82
                            50 2.94  81 2.99  78 3.02  29 3.03
   9  0.401  0.000  0.399-  80 2.66  58 2.66  41 2.67  64 2.69  63 2.71  67 2.73  85 2.74  88 2.75
                            12 2.87  59 2.98  79 3.02  68 3.04
  10  0.447  0.643  0.642-  96 2.55  78 2.62  81 2.63 101 2.73  97 2.75  82 2.80   8 2.82  73 2.83
                            77 2.84
  11  0.401  0.796  0.994-  56 2.62  82 2.62  84 2.64  75 2.68  79 2.70  62 2.71  57 2.74  98 2.80
                            78 2.95  99 2.96  61 3.01  83 3.02  63 3.04
  12  0.587  0.190  0.395-  63 2.62  67 2.64   3 2.71  14 2.71  85 2.75  88 2.75 124 2.80 112 2.82
                             9 2.87  84 3.00   2 3.04
  13  0.600  0.398  0.195-   3 2.61  66 2.64  90 2.65 110 2.69  71 2.70 115 2.70  94 2.70  14 2.71
                           111 2.80  87 2.94 114 3.00  70 3.00   2 3.07
  14  0.592  0.400  0.399-  72 2.62   2 2.64 111 2.68  95 2.69  91 2.69  13 2.71  12 2.71 116 2.73
                            96 2.87  67 2.96  71 2.97   3 3.10
  15  0.802  0.198  0.998- 108 2.57 107 2.59  21 2.67  27 2.67 102 2.69 109 2.71  87 2.72 123 2.74
                           110 2.98  26 3.00 106 3.01  89 3.02  83 3.04
  16  0.800  0.195  0.609- 108 2.50 105 2.62  30 2.66  88 2.67  24 2.76  85 2.76 124 2.76 112 2.76
                            86 2.92  25 2.96   4 3.00
  17  0.998  0.998  0.002-   1 2.54 102 2.56  34 2.58  21 2.58  39 2.61  20 2.62  44 2.63 122 2.68

  18  0.998  0.998  0.393- 104 2.54  23 2.56  41 2.59 119 2.59   1 2.60  36 2.64  46 2.69  19 2.71

  19  0.995  0.999  0.599-  24 2.50 105 2.53  37 2.55 120 2.61  47 2.63  20 2.65   7 2.67  18 2.71

  20  0.997  0.998  0.802- 106 2.52  38 2.56 121 2.59  43 2.61  25 2.61  42 2.61  17 2.62  19 2.65

  21  0.006  0.198  0.000-  43 2.51  17 2.58 106 2.59  25 2.60  49 2.61  22 2.62  26 2.64  15 2.67

  22  0.003  0.196  0.198-   1 2.54  23 2.57  44 2.59  21 2.62  27 2.63 107 2.63  50 2.64 102 2.68

  23  0.013  0.200  0.398-  45 2.46  18 2.56  51 2.57  22 2.57  28 2.66 103 2.68  24 2.72 124 2.74
                             1 2.94
  24  0.008  0.196  0.603-  19 2.50  46 2.53  52 2.60  25 2.62  29 2.66 104 2.70  23 2.72  16 2.76
                            47 2.92 124 3.08
  25  0.002  0.199  0.801-  21 2.60  47 2.60  48 2.60  20 2.61  24 2.62  30 2.63 108 2.65 105 2.67
                            16 2.96
  26  0.002  0.399  0.000-  30 2.54 108 2.61  48 2.61  54 2.62  27 2.62  21 2.64  31 2.65 109 2.68
                            15 3.00   5 3.04
  27  0.009  0.400  0.203-  55 2.50  28 2.52  49 2.55  26 2.62  22 2.63 110 2.63  15 2.67   5 2.71

  28  0.001  0.397  0.391-  27 2.52 107 2.58  50 2.60  32 2.63   8 2.65  23 2.66 111 2.75  29 2.89
                           124 2.96
  29  0.019  0.409  0.621-  56 2.35  30 2.56  51 2.59  24 2.66 124 2.68   6 2.69  52 2.86 112 2.86
                            28 2.89   8 3.03
  30  0.004  0.404  0.809-  26 2.54  53 2.55  29 2.56   4 2.63  25 2.63  33 2.64  52 2.66  16 2.66
                            31 2.91
  31  0.996  0.596  0.993-  33 2.49   4 2.54  58 2.62   5 2.63  34 2.63  53 2.64 113 2.64  26 2.65
                            30 2.91
  32  0.999  0.600  0.398-  36 2.59 115 2.60 110 2.60  55 2.62  60 2.63  28 2.63   5 2.65   6 2.68

  33  1.000  0.603  0.807-  31 2.49  57 2.55 112 2.57 117 2.60  56 2.62  38 2.63  30 2.64   6 2.68
                             4 3.00
  34  1.000  0.801  0.998- 118 2.54  57 2.56  38 2.57  40 2.57  17 2.58  35 2.60 117 2.60  31 2.63
                             1 3.00
  35  1.000  0.808  0.198-  41 2.53   1 2.53  34 2.60 119 2.60  36 2.62  58 2.63 113 2.64   5 2.68
                           118 2.86
  36  0.996  0.795  0.393- 114 2.59  32 2.59 120 2.60  59 2.62  35 2.62  18 2.64  37 2.68   7 2.68
                             5 2.98
  37  0.002  0.807  0.602-  19 2.55  42 2.57  60 2.58 115 2.61 121 2.63  38 2.67  36 2.68   6 2.70
                             7 2.98
  38  0.998  0.803  0.803- 116 2.56  20 2.56  34 2.57  39 2.62  33 2.63  61 2.66  37 2.67 122 2.78

  39  0.199  0.004  0.004-   2 2.51  40 2.58  43 2.59  42 2.60  17 2.61  38 2.62  57 2.63  62 2.66
                            63 2.90
  40  0.194  0.999  0.197-   1 2.57  41 2.57  34 2.57  39 2.58  67 2.60  44 2.61  63 2.64  58 2.65
                             2 3.02
  41  0.195  0.999  0.393-  35 2.53  40 2.57  59 2.57  45 2.58  18 2.59  68 2.65   9 2.67   7 2.68
                             1 2.98
  42  0.198  0.000  0.804-  66 2.54  61 2.57  37 2.57  39 2.60  20 2.61  47 2.61  65 2.64   7 2.70

  43  0.197  0.200  0.999-  21 2.51  66 2.55  48 2.57  39 2.59  44 2.59  71 2.61  20 2.61  47 2.62
                             2 2.99
  44  0.202  0.201  0.199-   2 2.56  22 2.59  49 2.59  43 2.59  72 2.60  40 2.61  45 2.62  17 2.63
                            67 2.89   1 3.03
  45  0.199  0.198  0.396-  23 2.46  67 2.51  41 2.58   1 2.61  44 2.62  50 2.63  46 2.63  73 2.68

  46  0.203  0.205  0.600-  51 2.47  24 2.53  68 2.59  74 2.60  45 2.63   7 2.63  47 2.66  18 2.69

  47  0.199  0.199  0.800-  52 2.57  25 2.60  42 2.61  70 2.61  43 2.62  69 2.63  19 2.63  46 2.66
                            24 2.92   7 3.01
  48  0.201  0.398  0.001-  43 2.57  52 2.60  76 2.60  25 2.60  49 2.61  26 2.61  70 2.61  53 2.62

  49  0.202  0.400  0.201-  27 2.55  71 2.56  44 2.59  50 2.60  54 2.60  48 2.61  21 2.61  77 2.62

  50  0.203  0.402  0.400-  72 2.50  49 2.60  28 2.60  45 2.63  22 2.64  55 2.66  51 2.68   8 2.94

  51  0.205  0.394  0.602-  46 2.47  78 2.56  73 2.57  23 2.57  29 2.59  52 2.65   8 2.66  50 2.68

  52  0.203  0.398  0.804-  75 2.55  47 2.57  48 2.60  24 2.60  74 2.63  56 2.64  51 2.65  30 2.66
                            29 2.86
  53  0.201  0.599  0.003-  30 2.55  54 2.56  79 2.58  48 2.62  56 2.62  31 2.64  75 2.64  57 2.67

  54  0.204  0.599  0.199-  55 2.54  53 2.56  80 2.58  76 2.59  49 2.60  26 2.62  58 2.63   5 2.69

  55  0.196  0.600  0.390-  27 2.50  54 2.54  81 2.58  32 2.62  59 2.64  77 2.65  50 2.66   8 2.69
                             5 2.98
  56  0.194  0.595  0.800-  29 2.35  11 2.62  33 2.62  53 2.62  78 2.64  52 2.64  61 2.69   8 2.73

  57  0.196  0.800  0.001-  63 2.50  33 2.55  34 2.56  58 2.58  61 2.63  39 2.63  53 2.67  11 2.74

  58  0.195  0.796  0.196-  57 2.58  31 2.62  54 2.63  59 2.63  35 2.63  40 2.65  79 2.65   9 2.66
                             5 2.95
  59  0.202  0.807  0.402-  41 2.57  36 2.62  58 2.63  55 2.64  64 2.65   5 2.68  80 2.68  60 2.69
                            81 2.88   7 2.98   9 2.98
  60  0.197  0.800  0.603-  37 2.58  61 2.59  81 2.60  65 2.60  32 2.63   7 2.64   8 2.68  59 2.69

  61  0.202  0.805  0.804-  42 2.57  62 2.59  60 2.59  57 2.63  82 2.65  38 2.66  56 2.69   6 2.74
                            11 3.01
  62  0.401  0.005  0.001-   3 2.50  63 2.53  66 2.57  65 2.59  61 2.59  83 2.62  39 2.66  11 2.71
                             2 2.96
  63  0.390  0.995  0.187-  57 2.50  62 2.53   2 2.59  12 2.62  40 2.64  84 2.65  79 2.68   9 2.71
                            39 2.90   3 3.00  11 3.04
  64  0.407  0.005  0.607-  89 2.51  81 2.53  68 2.60  65 2.60  86 2.61  59 2.65   7 2.68   9 2.69
                           123 3.06
  65  0.397  0.000  0.801-  82 2.55  62 2.59  87 2.60  60 2.60  64 2.60  69 2.62  42 2.64 123 2.73
                             7 3.04
  66  0.391  0.198  0.999-  42 2.54  43 2.55   2 2.56  62 2.57  70 2.59  69 2.62  13 2.64  87 2.68
                             3 3.02
  67  0.391  0.204  0.394-  45 2.51  72 2.57  40 2.60   2 2.61  12 2.64  91 2.67  68 2.70   9 2.73
                            44 2.89  14 2.96
  68  0.398  0.198  0.600-  46 2.59  88 2.59  64 2.60  73 2.63  92 2.63  41 2.65  69 2.65  67 2.70
                             7 2.98   9 3.04
  69  0.403  0.204  0.806-  90 2.54  74 2.58  89 2.61  65 2.62  66 2.62  47 2.63  68 2.65   7 2.67

  70  0.400  0.399  1.000-  75 2.53  66 2.59  48 2.61  47 2.61  94 2.61  74 2.62  90 2.63  71 2.66
                            13 3.00
  71  0.396  0.398  0.201-  49 2.56   2 2.60  72 2.61  43 2.61  76 2.61  95 2.65  70 2.66  13 2.70
                            14 2.97
  72  0.394  0.404  0.401-  50 2.50  77 2.57  67 2.57  44 2.60  96 2.60  71 2.61  14 2.62  73 2.63

  73  0.404  0.403  0.604-  91 2.53  51 2.57  74 2.61  97 2.61  68 2.63  72 2.63  45 2.68  10 2.83

  74  0.403  0.400  0.801-  78 2.55  92 2.58  93 2.58  69 2.58  46 2.60  73 2.61  70 2.62  52 2.63

  75  0.399  0.592  1.000-  70 2.53  52 2.55  76 2.57  78 2.59  93 2.61  99 2.61  53 2.64  11 2.68
                            94 2.91
  76  0.401  0.598  0.198-  75 2.57 100 2.58  94 2.59  54 2.59  48 2.60  71 2.61  79 2.61  77 2.63

  77  0.402  0.602  0.401-  80 2.55  72 2.57  95 2.58  49 2.62 101 2.62  76 2.63  55 2.65  10 2.84

  78  0.395  0.593  0.801-  98 2.55  74 2.55  51 2.56  75 2.59  10 2.62  56 2.64  97 2.70  82 2.77
                            11 2.95   8 3.02
  79  0.398  0.798  0.200-  85 2.51  53 2.58  80 2.59  76 2.61  58 2.65  99 2.65  63 2.68  11 2.70
                             9 3.02
  80  0.401  0.796  0.398-  81 2.55  77 2.55  54 2.58  79 2.59 100 2.61  86 2.62   9 2.66  59 2.68

  81  0.389  0.800  0.589-  64 2.53  80 2.55  55 2.58 123 2.60  60 2.60  10 2.63  82 2.67 101 2.76
                            59 2.88   8 2.99
  82  0.402  0.806  0.799-  65 2.55  11 2.62  83 2.63   8 2.65  61 2.65  81 2.67  78 2.77  10 2.80
                           123 2.80  98 2.82
  83  0.601  0.005  0.005-  84 2.52 107 2.55  98 2.56  87 2.59  62 2.62 123 2.63  82 2.63 102 2.68
                             3 2.93  11 3.02  15 3.04
  84  0.598  0.004  0.195-  83 2.52   3 2.54  11 2.64  85 2.65  63 2.65  99 2.65 103 2.74 124 2.77
                            12 3.00
  85  0.600  0.982  0.390- 100 2.45  79 2.51 104 2.60  84 2.65  86 2.69   9 2.74  12 2.75  16 2.76
                            99 2.86 124 3.21
  86  0.601  0.998  0.600- 101 2.58  64 2.61  80 2.62 108 2.63 105 2.64 123 2.68  88 2.69  85 2.69
                            16 2.92
  87  0.596  0.200  0.001-   3 2.55  83 2.59  65 2.60  89 2.61 110 2.62  90 2.66  66 2.68  15 2.72
                            13 2.94
  88  0.604  0.209  0.616-   4 2.49  89 2.51  91 2.57  68 2.59  16 2.67  86 2.69   9 2.75  12 2.75
                            92 2.87
  89  0.599  0.198  0.802-  88 2.51  64 2.51 109 2.54  69 2.61  87 2.61 108 2.64  92 2.65 123 2.82
                            15 3.02
  90  0.599  0.402  0.994-  92 2.53  69 2.54 114 2.58 109 2.60  93 2.61  70 2.63  13 2.65  87 2.66

  91  0.596  0.399  0.605-  73 2.53  92 2.55  96 2.57  88 2.57 112 2.59 117 2.62  67 2.67  14 2.69
                             4 3.02
  92  0.600  0.400  0.801-  90 2.53  91 2.55  74 2.58 113 2.60  97 2.62   4 2.62  68 2.63  89 2.65
                            88 2.87 109 2.89
  93  0.599  0.602  0.997-  97 2.57  74 2.58 119 2.59  94 2.60 113 2.60  90 2.61  75 2.61  98 2.76

  94  0.599  0.605  0.195-  99 2.57 114 2.58 120 2.58  76 2.59  93 2.60  70 2.61  95 2.65  13 2.70
                            75 2.91
  95  0.599  0.607  0.398- 100 2.48  77 2.58 121 2.60  96 2.62  94 2.65  71 2.65 115 2.68  14 2.69

  96  0.604  0.595  0.595- 116 2.43  10 2.55  91 2.57 122 2.58  72 2.60  95 2.62 101 2.68  97 2.70
                            14 2.87
  97  0.604  0.603  0.803-  93 2.57 117 2.57  73 2.61  92 2.62 118 2.63  78 2.70  96 2.70  98 2.72
                            10 2.75 122 2.87
  98  0.601  0.799  0.960-  78 2.55  83 2.56 118 2.58 102 2.70  97 2.72  93 2.76 103 2.79  11 2.80
                            82 2.82
  99  0.599  0.800  0.192-  94 2.57 104 2.59 119 2.60  75 2.61  84 2.65  79 2.65 100 2.69  85 2.86
                            11 2.96
 100  0.599  0.796  0.396-  85 2.45  95 2.48  76 2.58 105 2.60  80 2.61 120 2.63 101 2.65  99 2.69

 101  0.604  0.802  0.601- 121 2.57  86 2.58 106 2.62  77 2.62 100 2.65  96 2.68  10 2.73  81 2.76
                           123 2.88 122 2.90
 102  0.797  0.990  0.994- 103 2.55  17 2.56 118 2.57 106 2.63  22 2.68  83 2.68  15 2.69  98 2.70
                           122 2.82 123 2.95   1 2.98
 103  0.804  0.998  0.193-   1 2.54 102 2.55 119 2.58 107 2.63  23 2.68 104 2.69  84 2.74  98 2.79
                           124 3.19
 104  0.802  0.990  0.394- 120 2.50  18 2.54  99 2.59  85 2.60 105 2.68 103 2.69  24 2.70 124 2.81
                           119 2.91
 105  0.799  0.991  0.598- 121 2.52  19 2.53 106 2.58 100 2.60  16 2.62  86 2.64  25 2.67 104 2.68

 106  0.806  0.002  0.801-  20 2.52 122 2.57 105 2.58  21 2.59 101 2.62 108 2.62 102 2.63 123 2.65
                            15 3.01
 107  0.802  0.199  0.195-  83 2.55  28 2.58  15 2.59 110 2.61 103 2.63  22 2.63 124 2.71   3 2.72

 108  0.800  0.200  0.802-  16 2.50  15 2.57  26 2.61 106 2.62   4 2.62  86 2.63  89 2.64  25 2.65
                           123 3.17
 109  0.794  0.399  0.987-   4 2.46  89 2.54 113 2.57  90 2.60 110 2.67  26 2.68   5 2.68  15 2.71
                            92 2.89
 110  0.805  0.400  0.194- 111 2.50  32 2.60 107 2.61  87 2.62  27 2.63 114 2.67 109 2.67  13 2.69
                             5 2.98  15 2.98
 111  0.787  0.399  0.377- 110 2.50   3 2.54 115 2.54  14 2.68   6 2.70 124 2.70  28 2.75  13 2.80

 112  0.799  0.408  0.614-   4 2.49  33 2.57  91 2.59 116 2.65  16 2.76  12 2.82  29 2.86 117 2.88
                             6 2.99 124 3.13
 113  0.798  0.601  0.999- 118 2.54 109 2.57 117 2.58  92 2.60 114 2.60  93 2.60  31 2.64  35 2.64
                             5 3.01   4 3.02
 114  0.794  0.600  0.195-  94 2.58  90 2.58  36 2.59 119 2.59 113 2.60 115 2.65 110 2.67   5 2.68
                            13 3.00
 115  0.805  0.606  0.402- 111 2.54 120 2.56  32 2.60  37 2.61 114 2.65  95 2.68  13 2.70 116 2.73
                             6 2.96
 116  0.799  0.609  0.609-  96 2.43 121 2.53  38 2.56 117 2.56   6 2.64 112 2.65  14 2.73 115 2.73

 117  0.799  0.601  0.802- 116 2.56  97 2.57 113 2.58  34 2.60  33 2.60  91 2.62   4 2.62 122 2.66
                           112 2.88
 118  0.809  0.801  0.005-   1 2.52  34 2.54 113 2.54 119 2.55 102 2.57  98 2.58 122 2.59  97 2.63
                            35 2.86
 119  0.798  0.800  0.195- 118 2.55 103 2.58  93 2.59  18 2.59 114 2.59  99 2.60  35 2.60 120 2.63
                           104 2.91   1 3.02
 120  0.800  0.798  0.396- 104 2.50 115 2.56  94 2.58  36 2.60  19 2.61 100 2.63 119 2.63 121 2.70

 121  0.799  0.800  0.602- 105 2.52 116 2.53 101 2.57  20 2.59  95 2.60  37 2.63 122 2.67 120 2.70

 122  0.785  0.799  0.800- 106 2.57  96 2.58 118 2.59 117 2.66 121 2.67  17 2.68  38 2.78 102 2.82
                            97 2.87 101 2.90
 123  0.596  0.979  0.795-  81 2.60  83 2.63 106 2.65  86 2.68  65 2.73  15 2.74  82 2.80  89 2.82
                           101 2.88 102 2.95  64 3.06 108 3.17
 124  0.812  0.213  0.409-  29 2.68 111 2.70 107 2.71  23 2.74  16 2.76  84 2.77  12 2.80 104 2.81
                            28 2.96  24 3.08 112 3.13   3 3.17 103 3.19  85 3.21
 
  LATTYP: Found a triclinic cell.
 ALAT       =    13.1213514486
 B/A-ratio  =     1.6340986829
 C/A-ratio  =     1.9098641834
 COS(alpha) =     0.0001373337
 COS(beta)  =     0.5223382268
 COS(gamma) =     0.8168369773
  
  Lattice vectors:
  
 A1 = (  -7.5784932810,  -7.5673202570,   7.5810268140)
 A2 = ( -15.1698261740,   0.0039430650,  15.1531463720)
 A3 = (  -7.5128275220, -22.6970494610,  -7.5103213480)


Analysis of symmetry for initial positions (statically):
=====================================================================
 Subroutine PRICEL returns:
 Original cell was already a primitive cell.
 

 Routine SETGRP: Setting up the symmetry group for a 
 triclinic supercell.


 Subroutine GETGRP returns: Found  1 space group operations
 (whereof  1 operations were pure point group operations)
 out of a pool of  2 trial point group operations.


The static configuration has the point symmetry C_1 .


Analysis of symmetry for dynamics (positions and initial velocities):
=====================================================================
 Subroutine PRICEL returns:
 Original cell was already a primitive cell.
 

 Routine SETGRP: Setting up the symmetry group for a 
 triclinic supercell.


 Subroutine GETGRP returns: Found  1 space group operations
 (whereof  1 operations were pure point group operations)
 out of a pool of  2 trial point group operations.


The dynamic configuration has the point symmetry C_1 .


 Subroutine INISYM returns: Found  1 space group operations
 (whereof  1 operations are pure point group operations),
 and found     1 'primitive' translations


----------------------------------------------------------------------------------------

                                     Primitive cell                                     

  volume of cell :    1727.8235

  direct lattice vectors                    reciprocal lattice vectors
    -7.591332893  7.571263322  7.572119558     0.000287796  0.066095611  0.066263809
     7.538506746 -7.580117697  7.528135860     0.066383288  0.000095404  0.066456334
     7.578493281  7.567320257 -7.581026814     0.066207605  0.066112690  0.000270385

  length of vectors
    13.125904083 13.075171042 13.121351449     0.093592761  0.093931860  0.093564993

  position of ions in fractional coordinates (direct lattice)
     0.998854918  0.999885530  0.196006822
     0.393823276  0.196541355  0.194073572
     0.593228674  0.195729520  0.192941787
     0.799634873  0.400269882  0.801096878
     0.998946867  0.601763079  0.195828264
     0.990023179  0.594682133  0.596604112
     0.198689299  0.001459213  0.599148953
     0.205776148  0.596735811  0.596617049
     0.400686100  0.000171140  0.398650670
     0.446930869  0.643034665  0.641966638
     0.400580337  0.795736365  0.994237832
     0.587438122  0.189549726  0.395231128
     0.599574242  0.397934891  0.194573348
     0.592082689  0.399560552  0.398712088
     0.802186562  0.198437045  0.997560590
     0.799794410  0.195258545  0.609421633
     0.997578065  0.998464073  0.001794423
     0.997715732  0.997941976  0.392985760
     0.994792711  0.998914058  0.599094318
     0.997200581  0.997887917  0.801672120
     0.006220227  0.198028454  0.000353329
     0.002850812  0.196176431  0.198168284
     0.012662306  0.200427055  0.398464835
     0.008213931  0.196031452  0.603114642
     0.001942127  0.199052805  0.801312635
     0.002419561  0.398730315  0.000263446
     0.008679356  0.400472110  0.202642678
     0.000685186  0.397338967  0.391172609
     0.019318840  0.408742368  0.621265794
     0.003550309  0.403515762  0.808970208
     0.995632572  0.596354114  0.992639104
     0.999228229  0.599895586  0.397554527
     0.999923625  0.603342975  0.806952635
     0.999536440  0.800828307  0.998390311
     0.999578447  0.807540523  0.198358712
     0.995902999  0.795449235  0.392623132
     0.002041976  0.807137037  0.602336527
     0.998463029  0.802998292  0.803018089
     0.199203323  0.004323988  0.004189795
     0.194262755  0.998663898  0.197197339
     0.194855064  0.998602655  0.392924649
     0.197787318  0.000085484  0.804333358
     0.197465237  0.199773488  0.999309530
     0.201960223  0.201291990  0.198988928
     0.198804625  0.198349042  0.396453013
     0.202866799  0.204515949  0.600332331
     0.199445796  0.198894930  0.799991296
     0.201165870  0.398077311  0.001386633
     0.202186340  0.400321704  0.201049983
     0.202906262  0.401850716  0.399682963
     0.204758815  0.394402991  0.601853501
     0.202545999  0.397700297  0.803879809
     0.201034549  0.599049225  0.003171285
     0.204104228  0.599441168  0.199059601
     0.196151430  0.599862013  0.389906920
     0.194366438  0.595430663  0.799895447
     0.195550220  0.800485519  0.000813002
     0.195002657  0.796086679  0.196099043
     0.202186542  0.807478097  0.402290555
     0.196648246  0.800458821  0.603387496
     0.201890533  0.804915675  0.804333497
     0.400965411  0.005213242  0.000856615
     0.390113080  0.994663407  0.186575537
     0.407110865  0.005394753  0.607393257
     0.397489164  0.000318952  0.800640433
     0.390717497  0.197519582  0.998589509
     0.390734097  0.203670805  0.393888172
     0.397506996  0.198002737  0.599573397
     0.403298762  0.204029508  0.805580622
     0.399903366  0.399206600  0.999875692
     0.396419428  0.398175335  0.200874282
     0.394461467  0.403627656  0.400517410
     0.403605871  0.402691193  0.603769916
     0.402748798  0.400063800  0.801310540
     0.398981055  0.592394459  0.999936449
     0.400974667  0.598151628  0.198436818
     0.402074513  0.602436832  0.400721785
     0.395009348  0.592755812  0.801460600
     0.398475076  0.797581318  0.199970463
     0.401014948  0.796271788  0.397709361
     0.389366778  0.800265407  0.588836922
     0.402004064  0.806169450  0.798544330
     0.601431996  0.004596095  0.004820588
     0.597867456  0.003805893  0.195377904
     0.599841840  0.981987974  0.389529424
     0.600892731  0.997860942  0.599571068
     0.596140440  0.199583639  0.000598789
     0.603916856  0.209399340  0.616435930
     0.598658658  0.197549872  0.801679951
     0.599285338  0.401911224  0.994067520
     0.596042579  0.399488151  0.605174848
     0.599579120  0.400331973  0.800798944
     0.599369474  0.602069602  0.996698215
     0.599292481  0.604763768  0.195436338
     0.599277925  0.607347801  0.397913229
     0.604262228  0.594826422  0.594906213
     0.604203427  0.602643442  0.803069617
     0.600980304  0.798565439  0.960412621
     0.598834929  0.800339711  0.192133044
     0.599186323  0.796489664  0.395789773
     0.603814800  0.801946066  0.601323133
     0.797194645  0.990106146  0.994137989
     0.803965204  0.998204182  0.192931298
     0.801793325  0.989512056  0.394457925
     0.799224679  0.991157913  0.598480438
     0.806121812  0.001669703  0.800671286
     0.802329041  0.199324420  0.195133558
     0.800414771  0.200181978  0.801916894
     0.794311079  0.399409573  0.986735460
     0.804913368  0.399682000  0.193711312
     0.787475115  0.398525803  0.377269753
     0.798993569  0.407874312  0.613828202
     0.798105832  0.601288838  0.998506802
     0.794082496  0.600294365  0.194860825
     0.804576021  0.605759232  0.402308776
     0.798535896  0.608906490  0.609397668
     0.799091711  0.601001495  0.801847695
     0.808756517  0.801039898  0.005112530
     0.797698499  0.799903529  0.195040973
     0.799613515  0.797827067  0.395511025
     0.799375641  0.800039175  0.602185118
     0.784564378  0.798755353  0.800200848
     0.595539741  0.979096515  0.795318345
     0.812189484  0.212530532  0.409190558

  ion indices of the primitive-cell ions
   primitive index   ion index
                 1           1
                 2           2
                 3           3
                 4           4
                 5           5
                 6           6
                 7           7
                 8           8
                 9           9
                10          10
                11          11
                12          12
                13          13
                14          14
                15          15
                16          16
                17          17
                18          18
                19          19
                20          20
                21          21
                22          22
                23          23
                24          24
                25          25
                26          26
                27          27
                28          28
                29          29
                30          30
                31          31
                32          32
                33          33
                34          34
                35          35
                36          36
                37          37
                38          38
                39          39
                40          40
                41          41
                42          42
                43          43
                44          44
                45          45
                46          46
                47          47
                48          48
                49          49
                50          50
                51          51
                52          52
                53          53
                54          54
                55          55
                56          56
                57          57
                58          58
                59          59
                60          60
                61          61
                62          62
                63          63
                64          64
                65          65
                66          66
                67          67
                68          68
                69          69
                70          70
                71          71
                72          72
                73          73
                74          74
                75          75
                76          76
                77          77
                78          78
                79          79
                80          80
                81          81
                82          82
                83          83
                84          84
                85          85
                86          86
                87          87
                88          88
                89          89
                90          90
                91          91
                92          92
                93          93
                94          94
                95          95
                96          96
                97          97
                98          98
                99          99
               100         100
               101         101
               102         102
               103         103
               104         104
               105         105
               106         106
               107         107
               108         108
               109         109
               110         110
               111         111
               112         112
               113         113
               114         114
               115         115
               116         116
               117         117
               118         118
               119         119
               120         120
               121         121
               122         122
               123         123
               124         124

----------------------------------------------------------------------------------------

 
 
 KPOINTS: KPOINTS generated by db_to_vasp         

Automatic generation of k-mesh.
 Grid dimensions read from file:
 generate k-points for:    4    4    4

 Generating k-lattice:

  Cartesian coordinates                     Fractional coordinates (reciprocal lattice)
     0.000071949  0.016523903  0.016565952     0.250000000  0.000000000 -0.000000000
     0.016595822  0.000023851  0.016614084    -0.000000000  0.250000000 -0.000000000
     0.016551901  0.016528173  0.000067596     0.000000000 -0.000000000  0.250000000

  Length of vectors
     0.023398190  0.023482965  0.023391248

  Shift w.r.t. Gamma in fractional coordinates (k-lattice)
     0.000000000  0.000000000  0.000000000

 
 Subroutine IBZKPT returns following result:
 ===========================================
 
 Found     36 irreducible k-points:
 
 Following reciprocal coordinates:
            Coordinates               Weight
  0.000000  0.000000  0.000000      1.000000
  0.250000  0.000000  0.000000      2.000000
  0.500000  0.000000  0.000000      1.000000
  0.000000  0.250000  0.000000      2.000000
  0.250000  0.250000  0.000000      2.000000
  0.500000  0.250000  0.000000      2.000000
 -0.250000  0.250000  0.000000      2.000000
  0.000000  0.500000  0.000000      1.000000
  0.250000  0.500000  0.000000      2.000000
  0.500000  0.500000  0.000000      1.000000
  0.000000  0.000000  0.250000      2.000000
  0.250000  0.000000  0.250000      2.000000
  0.500000  0.000000  0.250000      2.000000
 -0.250000  0.000000  0.250000      2.000000
  0.000000  0.250000  0.250000      2.000000
  0.250000  0.250000  0.250000      2.000000
  0.500000  0.250000  0.250000      2.000000
 -0.250000  0.250000  0.250000      2.000000
  0.000000  0.500000  0.250000      2.000000
  0.250000  0.500000  0.250000      2.000000
  0.500000  0.500000  0.250000      2.000000
 -0.250000  0.500000  0.250000      2.000000
  0.000000 -0.250000  0.250000      2.000000
  0.250000 -0.250000  0.250000      2.000000
  0.500000 -0.250000  0.250000      2.000000
 -0.250000 -0.250000  0.250000      2.000000
  0.000000  0.000000  0.500000      1.000000
  0.250000  0.000000  0.500000      2.000000
  0.500000  0.000000  0.500000      1.000000
  0.000000  0.250000  0.500000      2.000000
  0.250000  0.250000  0.500000      2.000000
  0.500000  0.250000  0.500000      2.000000
 -0.250000  0.250000  0.500000      2.000000
  0.000000  0.500000  0.500000      1.000000
  0.250000  0.500000  0.500000      2.000000
  0.500000  0.500000  0.500000      1.000000
 
 Following cartesian coordinates:
            Coordinates               Weight
  0.000000  0.000000  0.000000      1.000000
  0.000072  0.016524  0.016566      2.000000
  0.000144  0.033048  0.033132      1.000000
  0.016596  0.000024  0.016614      2.000000
  0.016668  0.016548  0.033180      2.000000
  0.016740  0.033072  0.049746      2.000000
  0.016524 -0.016500  0.000048      2.000000
  0.033192  0.000048  0.033228      1.000000
  0.033264  0.016572  0.049794      2.000000
  0.033336  0.033096  0.066360      1.000000
  0.016552  0.016528  0.000068      2.000000
  0.016624  0.033052  0.016634      2.000000
  0.016696  0.049576  0.033200      2.000000
  0.016480  0.000004 -0.016498      2.000000
  0.033148  0.016552  0.016682      2.000000
  0.033220  0.033076  0.033248      2.000000
  0.033292  0.049600  0.049814      2.000000
  0.033076  0.000028  0.000116      2.000000
  0.049744  0.016576  0.033296      2.000000
  0.049815  0.033100  0.049862      2.000000
  0.049887  0.049624  0.066428      2.000000
  0.049672  0.000052  0.016730      2.000000
 -0.000044  0.016504 -0.016546      2.000000
  0.000028  0.033028  0.000019      2.000000
  0.000100  0.049552  0.016585      2.000000
 -0.000116 -0.000020 -0.033112      2.000000
  0.033104  0.033056  0.000135      1.000000
  0.033176  0.049580  0.016701      2.000000
  0.033248  0.066104  0.033267      1.000000
  0.049700  0.033080  0.016749      2.000000
  0.049772  0.049604  0.033315      2.000000
  0.049844  0.066128  0.049881      2.000000
  0.049628  0.016556  0.000183      2.000000
  0.066295  0.033104  0.033363      1.000000
  0.066367  0.049628  0.049929      2.000000
  0.066439  0.066152  0.066495      1.000000
 


--------------------------------------------------------------------------------------------------------




 Dimension of arrays:
   k-points           NKPTS =     36   k-points in BZ     NKDIM =     36   number of bands    NBANDS=    816
   number of dos      NEDOS =    301   number of ions     NIONS =    124
   non local maximal  LDIM  =      6   non local SUM 2l+1 LMDIM =     18
   total plane-waves  NPLWV = 941192
   max r-space proj   IRMAX =      1   max aug-charges    IRDMAX=  31289
   dimension x,y,z NGX =    98 NGY =   98 NGZ =   98
   dimension x,y,z NGXF=   196 NGYF=  196 NGZF=  196
   support grid    NGXF=   196 NGYF=  196 NGZF=  196
   ions per type =               4  12 106   1   1
   NGX,Y,Z   is equivalent  to a cutoff of  12.41, 12.46, 12.42 a.u.
   NGXF,Y,Z  is equivalent  to a cutoff of  24.82, 24.92, 24.83 a.u.

 SYSTEM =  unknown system                          
 POSCAR =  Cr Ti V  W  Zr                          

 Startparameter for this run:
   NWRITE =      2    write-flag & timer
   PREC   = accura    normal or accurate (medium, high low for compatibility)
   ISTART =      0    job   : 0-new  1-cont  2-samecut
   ICHARG =      2    charge: 1-file 2-atom 10-const
   ISPIN  =      1    spin polarized calculation?
   LNONCOLLINEAR =      F non collinear calculations
   LSORBIT =      F    spin-orbit coupling
   INIWAV =      1    electr: 0-lowe 1-rand  2-diag
   LASPH  =      F    aspherical Exc in radial PAW
 Electronic Relaxation 1
   ENCUT  =  520.0 eV  38.22 Ry    6.18 a.u.  24.41 24.31 24.40*2*pi/ulx,y,z
   ENINI  =  520.0     initial cutoff
   ENAUG  =  598.5 eV  augmentation charge cutoff
   NELM   =    100;   NELMIN=  2; NELMDL= -5     # of ELM steps 
   EDIFF  = 0.1E-05   stopping-criterion for ELM
   LREAL  =      F    real-space projection
   NLSPLINE    = F    spline interpolate recip. space projectors
   LCOMPAT=      F    compatible to vasp.4.4
   GGA_COMPAT  = T    GGA compatible to vasp.4.4-vasp.4.6
   LMAXPAW     = -100 max onsite density
   LMAXMIX     =    2 max onsite mixed and CHGCAR
   VOSKOWN=      0    Vosko Wilk Nusair interpolation
   ROPT   =    0.00000   0.00000   0.00000   0.00000
   ROPT   =    0.00000
 Ionic relaxation
   EDIFFG = -.1E-01   stopping-criterion for IOM
   NSW    =     -1    number of steps for IOM
   NBLOCK =      1;   KBLOCK =      1    inner block; outer block 
   IBRION =      2    ionic relax: 0-MD 1-quasi-New 2-CG
   NFREE  =      1    steps in history (QN), initial steepest desc. (CG)
   ISIF   =      2    stress and relaxation
   IWAVPR =     11    prediction:  0-non 1-charg 2-wave 3-comb
   ISYM   =      2    0-nonsym 1-usesym 2-fastsym
   LCORR  =      T    Harris-Foulkes like correction to forces

   POTIM  = 0.2000    time-step for ionic-motion
   TEIN   =    0.0    initial temperature
   TEBEG  =    0.0;   TEEND  =   0.0 temperature during run
   SMASS  =  -3.00    Nose mass-parameter (am)
   estimated Nose-frequenzy (Omega)   =  0.10E-29 period in steps = 0.31E+47 mass=  -0.394E-26a.u.
   SCALEE = 1.0000    scale energy and forces
   NPACO  =    256;   APACO  = 10.0  distance and # of slots for P.C.
   PSTRESS=    0.0 pullay stress

  Mass of Ions in am
   POMASS =  52.00 47.88 50.94183.85 91.22
  Ionic Valenz
   ZVAL   =  12.00 10.00 11.00 14.00 12.00
  Atomic Wigner-Seitz radii
   RWIGS  =  -1.00 -1.00 -1.00 -1.00 -1.00
  virtual crystal weights 
   VCA    =   1.00  1.00  1.00  1.00  1.00
   NELECT =    1360.0000    total number of electrons
   NUPDOWN=      -1.0000    fix difference up-down

 DOS related values:
   EMIN   =  10.00;   EMAX   =-10.00  energy-range for DOS
   EFERMI =   0.00;   METHOD = LEGACY      
   ISMEAR =     1;   SIGMA  =   0.20  broadening in eV -4-tet -1-fermi 0-gaus

 Electronic relaxation 2 (details)
   IALGO  =     38    algorithm
   LDIAG  =      T    sub-space diagonalisation (order eigenvalues)
   LSUBROT=      F    optimize rotation matrix (better conditioning)
   TURBO    =      0    0=normal 1=particle mesh
   IRESTART =      0    0=no restart 2=restart with 2 vectors
   NREBOOT  =      0    no. of reboots
   NMIN     =      0    reboot dimension
   EREF     =   0.00    reference energy to select bands
   IMIX   =      4    mixing-type and parameters
     AMIX     =   0.40;   BMIX     =  1.00
     AMIX_MAG =   1.60;   BMIX_MAG =  1.00
     AMIN     =   0.10
     WC   =   100.;   INIMIX=   1;  MIXPRE=   1;  MAXMIX= -45

 Intra band minimization:
   WEIMIN = 0.0010     energy-eigenvalue tresh-hold
   EBREAK =  0.31E-09  absolut break condition
   DEPER  =   0.30     relativ break condition  

   TIME   =   0.40     timestep for ELM

  volume/ion in A,a.u.               =      13.93        94.03
  Fermi-wavevector in a.u.,A,eV,Ry     =   1.511546  2.856408 31.086197  2.284771
  Thomas-Fermi vector in A             =   2.621589
 
 Write flags
   LWAVE        =      F    write WAVECAR
   LDOWNSAMPLE  =      F    k-point downsampling of WAVECAR
   LCHARG       =      T    write CHGCAR
   LVTOT        =      F    write LOCPOT, total local potential
   LVHAR        =      F    write LOCPOT, Hartree potential only
   LELF         =      F    write electronic localiz. function (ELF)
   LORBIT       =     11    0 simple, 1 ext, 2 COOP (PROOUT), +10 PAW based schemes


 Dipole corrections
   LMONO  =      F    monopole corrections only (constant potential shift)
   LDIPOL =      F    correct potential (dipole corrections)
   IDIPOL =      0    1-x, 2-y, 3-z, 4-all directions 
   EPSILON=  1.0000000 bulk dielectric constant

 Exchange correlation treatment:
   GGA     =    PE    GGA type
   LEXCH   =     8    internal setting for exchange type
   LIBXC   =     F    Libxc                    
   VOSKOWN =     0    Vosko Wilk Nusair interpolation
   LHFCALC =     F    Hartree Fock is set to
   LHFONE  =     F    Hartree Fock one center treatment
   AEXX    =    0.0000 exact exchange contribution

 Linear response parameters
   LEPSILON=     F    determine dielectric tensor
   LRPA    =     F    only Hartree local field effects (RPA)
   LNABLA  =     F    use nabla operator in PAW spheres
   LVEL    =     F    velocity operator in full k-point grid
   CSHIFT  =0.1000    complex shift for real part using Kramers Kronig
   OMEGAMAX=  -1.0    maximum frequency
   DEG_THRESHOLD= 0.2000000E-02 threshold for treating states as degnerate
   RTIME   =   -0.100 relaxation time in fs
  (WPLASMAI=    0.000 imaginary part of plasma frequency in eV, 0.658/RTIME)
   DFIELD  = 0.0000000 0.0000000 0.0000000 field for delta impulse in time
 
  Optional k-point grid parameters
   LKPOINTS_OPT  =     F    use optional k-point grid
   KPOINTS_OPT_MODE=     1    mode for optional k-point grid
 
 Orbital magnetization related:
   ORBITALMAG=     F  switch on orbital magnetization
   LCHIMAG   =     F  perturbation theory with respect to B field
   DQ        =  0.001000  dq finite difference perturbation B field
   LLRAUG    =     F  two centre corrections for induced B field
   LBONE     =     F  B-component reconstruction in AE one-centre
   LVGVCALC  =     T  calculate vGv susceptibility
   LVGVAPPL  =     F  apply vGv susceptibility instead of pGv for G=0

 Random number generation:
   RANDOM_GENERATOR = DEFAULT
   PCG_SEED         = not used


--------------------------------------------------------------------------------------------------------


 conjugate gradient relaxation of ions
 charge density and potential will be updated during run
 non-spin polarized calculation
 Variant of blocked Davidson
 Davidson routine will perform the subspace rotation
 perform sub-space diagonalisation
    after iterative eigenvector-optimisation
 modified Broyden-mixing scheme, WC =      100.0
 initial mixing is a Kerker type mixing with AMIX =  0.4000 and BMIX =      1.0000
 Hartree-type preconditioning will be used
 using additional bands           136
 reciprocal scheme for non local part
 use partial core corrections
 calculate Harris-corrections to forces 
   (improved forces if not selfconsistent)
 use gradient corrections 
 use of overlap-Matrix (Vanderbilt PP)
 Methfessel and Paxton  Order N= 1 SIGMA  =   0.20


--------------------------------------------------------------------------------------------------------


  energy-cutoff  :      520.00
  volume of cell :     1727.82
      direct lattice vectors                 reciprocal lattice vectors
    -7.591332893  7.571263322  7.572119558     0.000287796  0.066095611  0.066263809
     7.538506746 -7.580117697  7.528135860     0.066383288  0.000095404  0.066456334
     7.578493281  7.567320257 -7.581026814     0.066207605  0.066112690  0.000270385

  length of vectors
    13.125904083 13.075171042 13.121351449     0.093592761  0.093931860  0.093564993


 
 k-points in units of 2pi/SCALE and weight: KPOINTS generated by db_to_vasp         
   0.00000000  0.00000000  0.00000000       0.016
   0.00007195  0.01652390  0.01656595       0.031
   0.00014390  0.03304781  0.03313190       0.016
   0.01659582  0.00002385  0.01661408       0.031
   0.01666777  0.01654775  0.03318004       0.031
   0.01673972  0.03307166  0.04974599       0.031
   0.01652387 -0.01650005  0.00004813       0.031
   0.03319164  0.00004770  0.03322817       0.016
   0.03326359  0.01657160  0.04979412       0.031
   0.03333554  0.03309551  0.06636007       0.016
   0.01655190  0.01652817  0.00006760       0.031
   0.01662385  0.03305208  0.01663355       0.031
   0.01669580  0.04957598  0.03319950       0.031
   0.01647995  0.00000427 -0.01649836       0.031
   0.03314772  0.01655202  0.01668168       0.031
   0.03321967  0.03307593  0.03324763       0.031
   0.03329162  0.04959983  0.04981358       0.031
   0.03307577  0.00002812  0.00011573       0.031
   0.04974355  0.01657587  0.03329576       0.031
   0.04981549  0.03309978  0.04986172       0.031
   0.04988744  0.04962368  0.06642767       0.031
   0.04967160  0.00005197  0.01672981       0.031
  -0.00004392  0.01650432 -0.01654649       0.031
   0.00002803  0.03302822  0.00001946       0.031
   0.00009998  0.04955213  0.01658542       0.031
  -0.00011587 -0.00001958 -0.03311244       0.031
   0.03310380  0.03305635  0.00013519       0.016
   0.03317575  0.04958025  0.01670114       0.031
   0.03324770  0.06610415  0.03326710       0.016
   0.04969962  0.03308020  0.01674928       0.031
   0.04977157  0.04960410  0.03331523       0.031
   0.04984352  0.06612800  0.04988118       0.031
   0.04962768  0.01655629  0.00018332       0.031
   0.06629545  0.03310405  0.03336336       0.016
   0.06636740  0.04962795  0.04992931       0.031
   0.06643934  0.06615185  0.06649526       0.016
 
 k-points in reciprocal lattice and weights: KPOINTS generated by db_to_vasp         
   0.00000000  0.00000000  0.00000000       0.016
   0.25000000  0.00000000  0.00000000       0.031
   0.50000000  0.00000000  0.00000000       0.016
   0.00000000  0.25000000  0.00000000       0.031
   0.25000000  0.25000000  0.00000000       0.031
   0.50000000  0.25000000  0.00000000       0.031
  -0.25000000  0.25000000  0.00000000       0.031
   0.00000000  0.50000000  0.00000000       0.016
   0.25000000  0.50000000  0.00000000       0.031
   0.50000000  0.50000000  0.00000000       0.016
   0.00000000  0.00000000  0.25000000       0.031
   0.25000000  0.00000000  0.25000000       0.031
   0.50000000  0.00000000  0.25000000       0.031
  -0.25000000  0.00000000  0.25000000       0.031
   0.00000000  0.25000000  0.25000000       0.031
   0.25000000  0.25000000  0.25000000       0.031
   0.50000000  0.25000000  0.25000000       0.031
  -0.25000000  0.25000000  0.25000000       0.031
   0.00000000  0.50000000  0.25000000       0.031
   0.25000000  0.50000000  0.25000000       0.031
   0.50000000  0.50000000  0.25000000       0.031
  -0.25000000  0.50000000  0.25000000       0.031
   0.00000000 -0.25000000  0.25000000       0.031
   0.25000000 -0.25000000  0.25000000       0.031
   0.50000000 -0.25000000  0.25000000       0.031
  -0.25000000 -0.25000000  0.25000000       0.031
   0.00000000  0.00000000  0.50000000       0.016
   0.25000000  0.00000000  0.50000000       0.031
   0.50000000  0.00000000  0.50000000       0.016
   0.00000000  0.25000000  0.50000000       0.031
   0.25000000  0.25000000  0.50000000       0.031
   0.50000000  0.25000000  0.50000000       0.031
  -0.25000000  0.25000000  0.50000000       0.031
   0.00000000  0.50000000  0.50000000       0.016
   0.25000000  0.50000000  0.50000000       0.031
   0.50000000  0.50000000  0.50000000       0.016
 
 position of ions in fractional coordinates (direct lattice) 
   0.99885492  0.99988553  0.19600682
   0.39382328  0.19654135  0.19407357
   0.59322867  0.19572952  0.19294179
   0.79963487  0.40026988  0.80109688
   0.99894687  0.60176308  0.19582826
   0.99002318  0.59468213  0.59660411
   0.19868930  0.00145921  0.59914895
   0.20577615  0.59673581  0.59661705
   0.40068610  0.00017114  0.39865067
   0.44693087  0.64303466  0.64196664
   0.40058034  0.79573636  0.99423783
   0.58743812  0.18954973  0.39523113
   0.59957424  0.39793489  0.19457335
   0.59208269  0.39956055  0.39871209
   0.80218656  0.19843704  0.99756059
   0.79979441  0.19525854  0.60942163
   0.99757807  0.99846407  0.00179442
   0.99771573  0.99794198  0.39298576
   0.99479271  0.99891406  0.59909432
   0.99720058  0.99788792  0.80167212
   0.00622023  0.19802845  0.00035333
   0.00285081  0.19617643  0.19816828
   0.01266231  0.20042706  0.39846483
   0.00821393  0.19603145  0.60311464
   0.00194213  0.19905280  0.80131263
   0.00241956  0.39873032  0.00026345
   0.00867936  0.40047211  0.20264268
   0.00068519  0.39733897  0.39117261
   0.01931884  0.40874237  0.62126579
   0.00355031  0.40351576  0.80897021
   0.99563257  0.59635411  0.99263910
   0.99922823  0.59989559  0.39755453
   0.99992362  0.60334298  0.80695263
   0.99953644  0.80082831  0.99839031
   0.99957845  0.80754052  0.19835871
   0.99590300  0.79544924  0.39262313
   0.00204198  0.80713704  0.60233653
   0.99846303  0.80299829  0.80301809
   0.19920332  0.00432399  0.00418979
   0.19426276  0.99866390  0.19719734
   0.19485506  0.99860265  0.39292465
   0.19778732  0.00008548  0.80433336
   0.19746524  0.19977349  0.99930953
   0.20196022  0.20129199  0.19898893
   0.19880462  0.19834904  0.39645301
   0.20286680  0.20451595  0.60033233
   0.19944580  0.19889493  0.79999130
   0.20116587  0.39807731  0.00138663
   0.20218634  0.40032170  0.20104998
   0.20290626  0.40185072  0.39968296
   0.20475881  0.39440299  0.60185350
   0.20254600  0.39770030  0.80387981
   0.20103455  0.59904923  0.00317128
   0.20410423  0.59944117  0.19905960
   0.19615143  0.59986201  0.38990692
   0.19436644  0.59543066  0.79989545
   0.19555022  0.80048552  0.00081300
   0.19500266  0.79608668  0.19609904
   0.20218654  0.80747810  0.40229055
   0.19664825  0.80045882  0.60338750
   0.20189053  0.80491567  0.80433350
   0.40096541  0.00521324  0.00085662
   0.39011308  0.99466341  0.18657554
   0.40711086  0.00539475  0.60739326
   0.39748916  0.00031895  0.80064043
   0.39071750  0.19751958  0.99858951
   0.39073410  0.20367081  0.39388817
   0.39750700  0.19800274  0.59957340
   0.40329876  0.20402951  0.80558062
   0.39990337  0.39920660  0.99987569
   0.39641943  0.39817533  0.20087428
   0.39446147  0.40362766  0.40051741
   0.40360587  0.40269119  0.60376992
   0.40274880  0.40006380  0.80131054
   0.39898106  0.59239446  0.99993645
   0.40097467  0.59815163  0.19843682
   0.40207451  0.60243683  0.40072178
   0.39500935  0.59275581  0.80146060
   0.39847508  0.79758132  0.19997046
   0.40101495  0.79627179  0.39770936
   0.38936678  0.80026541  0.58883692
   0.40200406  0.80616945  0.79854433
   0.60143200  0.00459610  0.00482059
   0.59786746  0.00380589  0.19537790
   0.59984184  0.98198797  0.38952942
   0.60089273  0.99786094  0.59957107
   0.59614044  0.19958364  0.00059879
   0.60391686  0.20939934  0.61643593
   0.59865866  0.19754987  0.80167995
   0.59928534  0.40191122  0.99406752
   0.59604258  0.39948815  0.60517485
   0.59957912  0.40033197  0.80079894
[...]
   0.191E+02 -.891E+02 0.396E+02   -.189E+02 0.890E+02 -.400E+02   -.234E+00 0.900E-01 0.390E+00   0.336E-02 0.813E-03 -.189E-02
   0.280E+02 -.593E+02 0.762E+02   -.275E+02 0.596E+02 -.761E+02   -.515E+00 -.335E+00 -.335E-01   0.255E-02 -.132E-02 -.829E-04
   0.166E+03 -.839E+00 -.149E+02   -.167E+03 0.121E+01 0.152E+02   0.542E+00 -.365E+00 -.312E+00   -.172E-04 -.537E-02 0.896E-03
   0.265E+02 0.699E+02 -.322E+02   -.266E+02 -.696E+02 0.323E+02   0.163E+00 -.264E+00 -.110E+00   -.925E-03 -.222E-02 -.510E-03
   0.289E+01 0.143E+03 0.613E+02   -.286E+01 -.143E+03 -.610E+02   -.254E-01 -.140E+00 -.298E+00   0.358E-02 -.543E-02 -.276E-02
   -.400E+02 0.403E+02 0.518E+02   0.401E+02 -.394E+02 -.523E+02   -.146E+00 -.958E+00 0.504E+00   0.242E-02 -.107E-02 -.185E-02
   0.428E+01 -.304E+02 0.198E+02   -.422E+01 0.309E+02 -.201E+02   -.744E-01 -.466E+00 0.290E+00   0.130E-02 0.193E-02 -.145E-02
   0.440E+02 -.888E+01 0.327E+02   -.442E+02 0.913E+01 -.325E+02   0.258E+00 -.257E+00 -.188E+00   0.430E-03 -.138E-02 0.680E-03
   -.498E+02 0.126E+03 0.961E+02   0.486E+02 -.125E+03 -.953E+02   0.115E+01 -.987E+00 -.846E+00   -.384E-03 -.551E-02 0.377E-03
   0.845E+02 -.106E+03 0.987E+02   -.840E+02 0.105E+03 -.980E+02   -.540E+00 0.105E+01 -.716E+00   -.360E-02 -.710E-03 -.204E-02
   -.106E+03 0.135E+01 0.479E+02   0.105E+03 -.145E+01 -.478E+02   0.849E+00 0.954E-01 -.100E+00   0.581E-03 0.278E-03 -.128E-02
 -----------------------------------------------------------------------------------------------
   -.182E+00 -.647E+00 -.230E+00   0.171E-12 0.863E-12 0.231E-11   0.187E+00 0.649E+00 0.228E+00   -.688E-03 -.836E-04 -.122E-02
 
 
 POSITION                                       TOTAL-FORCE (eV/Angst)
 -----------------------------------------------------------------------------------
      1.44044      1.46659     13.60479         0.003377     -0.007460      0.001484
     -0.03723      2.96055      2.99039         0.002995      0.002225      0.000879
     -1.56568      4.46789      4.50278        -0.000488     -0.000160     -0.001526
      3.01825      9.08231      2.99508        -0.003494      0.001455     -0.002558
     -1.56286      4.48375     10.60972        -0.006683      0.002544     -0.002000
      1.48878      7.50266      7.45055        -0.006394      0.001085      0.004126
      3.04333      6.02722     -3.02668        -0.007253     -0.000584     -0.000166
      7.45784      1.54945      1.52750         0.011789      0.009083      0.016390
     -0.01928      6.04912      0.01315         0.001019     -0.005536     -0.001034
      6.31986      3.36752      3.35830         0.010635      0.015897      0.007275
     10.49255      4.52484      1.48631         0.026794     -0.052617     -0.029924
     -0.03526      6.00168      2.87885        -0.000493      0.002189     -0.005754
     -0.07716      2.99554      6.06069        -0.002160      0.000450     -0.003195
      1.53903      4.47128      4.46862         0.002101      0.004537      0.001879
      2.96626     12.11825      0.00558        -0.008590      0.005493     -0.002851
      0.01895      9.18706      2.90603        -0.004232     -0.004980      0.000389
     -0.03242     -0.00197     15.05675         0.005282     -0.009786     -0.000877
      2.92724      2.96330     12.08823         0.001907      0.003911      0.009293
      4.51875      4.49349     10.51090        -0.002010     -0.002672      0.007393
      6.02797      6.05247      8.98566        -0.003684     -0.002350      0.007530
      1.44830     -1.45131      1.53521        -0.002739      0.003919     -0.002919
      2.95905      0.03415     -0.00389         0.000930     -0.001977      0.000112
      4.43456      1.59192     -1.41605         0.007061      0.004919      0.014494
      5.98613      3.14021     -3.03428        -0.001494     -0.002404      0.006004
      7.55856      4.56965     -4.56157        -0.002034      0.000934      0.005964
      2.98946     -3.00211      3.01802        -0.005443      0.003734     -0.000139
      4.48880     -1.43645      1.54429        -0.003760      0.004177      0.000220
      5.95464     -0.04656      0.03092         0.002647      0.006516      0.006596
      7.64291      1.74927     -1.48648        -0.001296      0.001215      0.007434
      9.14573      3.08992     -3.06822        -0.000325      0.000824     -0.004257
      4.46015     10.52938      4.50326        -0.000532     -0.001446     -0.001839
     -0.05029      6.02656      9.06850        -0.004091      0.003109      0.002912
      3.07304      9.10374      5.99606        -0.000720     -0.008204     -0.006700
      6.01553      9.05252      6.02853         0.008512     -0.008868     -0.003026
      0.00278      2.94786     12.14444         0.001536      0.006132     -0.000810
      1.41176      4.48175     10.55286        -0.006329     -0.001103      0.000759
     10.63391     -1.54466      1.52537        -0.006201     -0.000222     -0.001059
      4.55941      7.54950      7.51786        -0.002262     -0.006060      0.000196
     -1.44787      1.50715      1.50918         0.003582     -0.003484     -0.003546
      7.54818     -4.60692      7.49410         0.007134     -0.006714     -0.001229
      9.02654     -3.12084      6.01431         0.003298     -0.001013      0.003010
      4.59481      7.58350     -4.59936        -0.001002     -0.005285     -0.002045
      7.58023      7.54285     -4.57664         0.001439     -0.000526     -0.001223
      1.49233      1.50909      1.53608         0.006844     -0.001445      0.001278
      2.99058      3.00178     -0.00695         0.008260     -0.002435      0.006780
      4.55133      4.52861     -1.47538        -0.000281      0.003467      0.004334
      6.04804      6.05620     -3.05722         0.000527     -0.001785      0.000728
      1.48430     -1.48390      4.50952        -0.001319      0.000924      0.002395
      3.00662      0.01773      3.02049        -0.002493      0.001280      0.002703
      4.51802      1.51471      1.53161         0.010162      0.005729      0.008398
      5.97996      3.11508     -0.04309         0.003433      0.003578      0.009725
      7.55267      4.60213     -1.56659         0.004342      0.002237      0.000870
      3.01385     -2.99478      6.00794         0.003526     -0.003143     -0.004739
      4.47804     -1.49216      4.54910        -0.004873      0.000112      0.000265
      5.98792     -0.11136      3.04523        -0.001953      0.000517      0.001336
      9.07516      3.01123     -0.10978        -0.005186     -0.011417     -0.013659
      4.55614     -4.58106      7.50073         0.014080     -0.018338     -0.012732
      6.00711     -3.07407      5.98300         0.005205     -0.004208     -0.006269
      7.60107     -1.54571      4.56001        -0.002565     -0.002855     -0.004242
      9.11421     -0.01267      2.94071        -0.002821      0.001995     -0.001041
     10.63088      1.51386      1.49058        -0.000980     -0.005100      0.001468
     -2.99807      3.00278      3.06891         0.007907     -0.005196      0.004147
      5.95076     -3.17414      9.02751         0.005423     -0.004458      0.001858
      1.55328      7.63779     -1.48136        -0.000467     -0.002420     -0.000788
      3.05258      9.06578     -3.05744        -0.002841     -0.004158     -0.004132
      6.09074      9.01765     -3.12482        -0.000624      0.001229     -0.003095
      1.55426      4.39518      1.50587         0.003486     -0.003013      0.004517
      3.01890      6.04591     -0.04482        -0.002291     -0.001755      0.001355
      4.58159      7.60300     -1.51734        -0.003123     -0.001642     -0.004020
      7.55117      7.56812     -1.54669        -0.003390     -0.001991     -0.006727
      1.51462      1.50326      4.47642        -0.000895     -0.001004      0.001270
      3.08358      2.95787      2.98914         0.002747      0.001372      0.005502
      4.54745      4.57228      1.51047         0.005297      0.006486      0.010409
      6.03121      6.08056     -0.01336        -0.005593     -0.000052     -0.007375
      9.01498      6.09721     -0.09979         0.001952      0.002079      0.036254
      2.96909      0.00346      6.03484        -0.007578     -0.007333      0.004615
      4.52606      1.51006      4.54190        -0.000532      0.000134      0.000756
      7.54371      4.56247      1.37751         0.004834      0.010517     -0.010042
      4.50309     -1.51556      7.50562         0.010393     -0.008321     -0.006624
      5.97250      0.00995      6.01593        -0.002315     -0.004309      0.001215
      7.53949      1.33781      4.50885        -0.008016      0.006254      0.005655
      9.07733      2.97566      3.05919         0.002494      0.036578      0.022129
     -4.49449      4.55524      4.55217        -0.006781      0.002322     -0.010161
     -3.02925      5.97625      3.07461        -0.032703      0.005927     -0.000940
      5.80117      0.04567      8.98158        -0.002187     -0.008175      0.003420
      7.50465      1.52276      7.51670         0.000804     -0.006731      0.002022
     -3.01640      3.00520      6.01200        -0.005866      0.000389     -0.000976
      1.66568      7.64991      1.47610         0.000575     -0.005563     -0.000551
      3.02014      9.10172     -0.05726        -0.005767      0.001683     -0.001924
      6.01397      9.01324      0.02745        -0.010819      0.004865     -0.002918
      3.07310      6.06418      2.93286         0.006939      0.000047      0.004874
      4.53515      7.56491      1.48296        -0.006731      0.002508      0.002616
      7.54216      7.51656      1.51496        -0.019157      0.016524     -0.011565
      1.49070      1.43215      7.60905        -0.008826      0.000799     -0.002342
      3.04476      2.94466      6.09341        -0.006412     -0.004808      0.004422
      4.40544      4.56802      4.54348         0.007177     -0.005812      0.008594
      6.04238      6.08356      3.02379         0.026073      0.002776      0.006915
      8.73623      5.76471      3.28149         0.112312      0.128684     -0.135044
      2.94349     -0.07880      9.10295         0.001851      0.001762     -0.003354
      4.45521      1.49418      7.53270        -0.004033     -0.004948      0.004084
      6.01884      3.04320      6.05067        -0.007147     -0.007398      0.010373
      8.94622      6.05361      5.95352        -0.029603     -0.027704     -0.043401
      2.88393     -0.01950     12.13972         0.000017      0.005908      0.010936
      4.36216      1.55496     10.53006         0.001487      0.006698      0.008984
      5.94025      3.06694      8.97630        -0.008336     -0.008062      0.009026
     -0.03907     12.14964      0.04671        -0.015701     -0.009444      0.011617
     -3.10932      6.04038      6.09656        -0.002403     -0.008108     -0.000540
      1.51018     10.61111      1.48848        -0.001141     -0.001235      0.004962
      4.45904     10.45331      1.54096        -0.007720      0.002456     -0.004123
     -1.62932      4.53045      7.63523        -0.005919      0.003255     -0.004061
     -0.11456      5.79623      6.10292        -0.001332     -0.002885      0.003247
      1.66123      7.60269      4.46716        -0.000026     -0.002521     -0.000978
      6.04131      9.04085      3.00023        -0.003130      0.007007      0.004710
     -0.02607      2.93648      9.05474        -0.005150      0.009238      0.002504
      1.50761      4.54433      7.60267        -0.001887     -0.002450      0.001256
      3.14661      6.04185      6.01068        -0.005199     -0.000380      0.003435
      4.54128      7.56231      4.49641        -0.000552     -0.001714      0.000335
     -0.06215      0.09002     12.11558         0.003889      0.002667     -0.004473
      1.45260      1.45216     10.58344         0.004031     -0.012021     -0.004509
      2.94167      2.99942      9.06254        -0.005005      0.001865      0.006445
      4.52643      4.54482      7.51059        -0.007759     -0.001921      0.006851
      6.12985      5.94086      5.88761        -0.007319     -0.010575      0.009324
      8.88730      3.10575      5.85094        -0.002573     -0.009395      0.013153
     -1.46239      7.63477      4.64787         0.002928     -0.004535      0.007614
 -----------------------------------------------------------------------------------
    total drift:                                0.004460      0.002221     -0.002936


--------------------------------------------------------------------------------------------------------



  FREE ENERGIE OF THE ION-ELECTRON SYSTEM (eV)
  ---------------------------------------------------
  free  energy   TOTEN  =     -1096.99867399 eV

  energy  without entropy=    -1096.94914728  energy(sigma->0) =    -1096.98216509
 


--------------------------------------------------------------------------------------------------------


    POTLOK:  cpu time      0.4847: real time      0.1718


--------------------------------------------------------------------------------------------------------




--------------------------------------------------------------------------------------------------------


     LOOP+:  cpu time   4892.2438: real time   4884.1338
    4ORBIT:  cpu time      0.0000: real time      0.0000



 total charge

# of ion       s       p       d       tot
------------------------------------------
    1        0.423   6.328   4.212  10.963
    2        0.414   6.312   4.187  10.914
    3        0.412   6.306   4.194  10.912
    4        0.423   6.316   4.224  10.964
    5        0.363   6.295   2.116   8.774
    6        0.350   6.272   2.090   8.712
    7        0.361   6.291   2.126   8.777
    8        0.353   6.275   2.093   8.721
    9        0.357   6.282   2.100   8.738
   10        0.338   6.238   2.099   8.676
   11        0.357   6.288   2.101   8.745
   12        0.354   6.266   2.109   8.729
   13        0.364   6.296   2.118   8.778
   14        0.358   6.278   2.121   8.757
   15        0.360   6.300   2.141   8.801
   16        0.359   6.274   2.153   8.787
   17        0.357   6.244   3.048   9.649
   18        0.352   6.234   3.043   9.628
   19        0.356   6.227   3.077   9.659
   20        0.356   6.232   3.072   9.661
   21        0.358   6.234   3.074   9.665
   22        0.355   6.239   3.037   9.630
   23        0.355   6.222   3.091   9.667
   24        0.352   6.224   3.053   9.629
   25        0.353   6.238   3.034   9.626
   26        0.351   6.230   3.048   9.629
   27        0.359   6.226   3.090   9.675
   28        0.349   6.219   3.041   9.609
   29        0.355   6.206   3.117   9.678
   30        0.355   6.228   3.061   9.644
   31        0.356   6.234   3.064   9.654
   32        0.351   6.219   3.060   9.631
   33        0.357   6.231   3.083   9.670
   34        0.359   6.234   3.092   9.685
   35        0.358   6.237   3.061   9.656
   36        0.353   6.227   3.047   9.626
   37        0.352   6.227   3.053   9.631
   38        0.350   6.230   3.035   9.616
   39        0.358   6.245   3.046   9.649
   40        0.356   6.238   3.057   9.651
   41        0.356   6.225   3.085   9.667
   42        0.357   6.232   3.066   9.655
   43        0.360   6.236   3.094   9.690
   44        0.358   6.242   3.050   9.650
   45        0.358   6.238   3.077   9.674
   46        0.358   6.230   3.087   9.675
   47        0.354   6.236   3.043   9.633
   48        0.357   6.239   3.059   9.655
   49        0.360   6.239   3.071   9.669
   50        0.348   6.226   3.022   9.595
   51        0.358   6.221   3.107   9.685
   52        0.357   6.239   3.047   9.644
   53        0.353   6.231   3.057   9.640
   54        0.357   6.228   3.080   9.666
   55        0.356   6.223   3.084   9.664
   56        0.356   6.219   3.108   9.683
   57        0.354   6.228   3.073   9.655
   58        0.353   6.229   3.040   9.621
   59        0.349   6.227   3.034   9.610
   60        0.351   6.218   3.063   9.632
   61        0.348   6.222   3.038   9.608
   62        0.357   6.234   3.069   9.661
   63        0.353   6.221   3.074   9.648
   64        0.352   6.223   3.087   9.661
   65        0.353   6.234   3.062   9.648
   66        0.356   6.233   3.074   9.663
   67        0.353   6.227   3.051   9.631
   68        0.350   6.231   3.034   9.615
   69        0.354   6.230   3.056   9.640
   70        0.355   6.236   3.056   9.647
   71        0.353   6.233   3.039   9.625
   72        0.358   6.222   3.108   9.688
   73        0.348   6.228   3.035   9.611
   74        0.359   6.236   3.069   9.664
   75        0.359   6.227   3.089   9.675
   76        0.357   6.235   3.066   9.657
   77        0.350   6.227   3.041   9.618
   78        0.366   6.233   3.056   9.654
   79        0.353   6.227   3.058   9.637
   80        0.356   6.228   3.074   9.657
   81        0.366   6.237   3.085   9.687
   82        0.360   6.225   3.036   9.620
   83        0.367   6.238   3.093   9.697
   84        0.349   6.213   3.061   9.624
   85        0.353   6.218   3.073   9.644
   86        0.348   6.232   3.033   9.614
   87        0.347   6.227   3.038   9.611
   88        0.356   6.225   3.065   9.646
   89        0.353   6.231   3.082   9.666
   90        0.358   6.232   3.077   9.667
   91        0.357   6.225   3.087   9.669
   92        0.360   6.244   3.055   9.659
   93        0.353   6.233   3.049   9.634
   94        0.356   6.233   3.060   9.648
   95        0.353   6.227   3.060   9.641
   96        0.372   6.231   3.109   9.712
   97        0.364   6.233   3.036   9.633
   98        0.335   6.200   2.993   9.527
   99        0.346   6.223   3.011   9.579
  100        0.361   6.233   3.096   9.690
  101        0.357   6.228   3.026   9.611
  102        0.358   6.225   3.039   9.622
  103        0.345   6.227   3.011   9.583
  104        0.352   6.223   3.063   9.637
  105        0.356   6.229   3.079   9.664
  106        0.367   6.238   3.092   9.696
  107        0.352   6.221   3.078   9.650
  108        0.352   6.224   3.090   9.666
  109        0.355   6.231   3.058   9.644
  110        0.352   6.220   3.061   9.633
  111        0.356   6.208   3.079   9.643
  112        0.340   6.214   3.002   9.556
  113        0.357   6.238   3.070   9.665
  114        0.353   6.226   3.060   9.639
  115        0.350   6.224   3.045   9.619
  116        0.355   6.217   3.113   9.686
  117        0.356   6.240   3.050   9.646
  118        0.375   6.250   3.091   9.717
  119        0.357   6.231   3.079   9.667
  120        0.355   6.232   3.068   9.655
  121        0.357   6.234   3.068   9.659
  122        0.338   6.215   2.997   9.551
  123        2.429   6.241   3.358  12.028
  124        2.258   5.964   1.899  10.122
--------------------------------------------------
tot         48.248 773.097 372.0251193.371
 

 total amount of memory used by VASP MPI-rank0  7324551. kBytes
=======================================================================

   base      :      30000. kBytes
   nonl-proj :    1299768. kBytes
   fftplans  :      67629. kBytes
   grid      :     189621. kBytes
   one-center:       1928. kBytes
   wavefun   :    5735605. kBytes
 
  
  
 General timing and accounting informations for this job:
 ========================================================
  
                  Total CPU time used (sec):     5213.080
                            User time (sec):     4585.515
                          System time (sec):      627.564
                         Elapsed time (sec):     5198.535
  
                   Maximum memory used (kb):     9656412.
                   Average memory used (kb):          N/A
  
                          Minor page faults:      1441307
                          Major page faults:           11
                 Voluntary context switches:       732161
