127
Lattice="11.704399053409029 0.0008083397555309771 0.0004642799452775858 0.0008084012019151772 11.705913887344366 0.0012991646523473062 0.0004642776101685465 0.0012990500267091095 11.706916941412393" Properties=species:S:1:pos:R:3:energies:R:1:forces:R:3 energy=-1136.1101091314629 free_energy=-1136.1101091314629 stress="-0.0012933864686197607 -5.170411834189057e-05 -6.191559539707933e-05 -5.170411834189057e-05 -0.0015800338360701445 0.0002239783624592153 -6.191559539707933e-05 0.0002239783624592153 -0.0013754710273898027" pbc="T T T"
Cr       2.93317037       8.77231445       0.02321313      -7.26390379       0.00019167       0.00109171       0.00045868
Cr       8.82653258       2.89535468       2.89583950      -7.64800309       0.00393252      -0.00409523      -0.00544552
Ti       2.92964835       5.84896155       8.77213751      -7.97446873      -0.00014169       0.00104976      -0.00010140
Ti       8.77388284       0.00073258       8.75490952      -7.88326993      -0.00290970      -0.00309151      -0.00076342
V       -0.01563964       0.04103127       0.03893823      -8.79593688      -0.00076197      -0.00003149       0.00057719
V        1.50884225       1.47294049       1.47021614      -8.80085308       0.00221806      -0.00042364      -0.00016367
V       -0.02372579       0.03274659       2.90185398      -8.81513548      -0.00103551       0.00097103       0.00070890
V        1.45073937       1.46734230       4.37982971      -8.93873067      -0.00049455      -0.00043116      -0.00048223
V       -0.00071784      -0.00505778       5.84999280      -8.94044376       0.00184352      -0.00244360       0.00018680
V        1.46758620       1.46582568       7.31351258      -8.96248969       0.00248106       0.00089838      -0.00042036
V       -0.01023245      -0.00598861       8.76645748      -8.92076899       0.00085275      -0.00207646      -0.00061846
V        1.45222633       1.46972594      10.25064295      -8.97657029      -0.00133693      -0.00007324      -0.00007887
V       -0.02385384       2.91677301       0.03049381      -9.22649980      -0.00123990       0.00093392       0.00100526
V        1.47102865       4.38044786       1.46676473      -9.22195964       0.00078495      -0.00050007      -0.00006580
V       -0.01618813       2.91472619       2.90585425      -9.27045350      -0.00378527      -0.00068926      -0.00259550
V        1.46356688       4.38831901       4.38887912      -8.99718917       0.00135272      -0.00012809       0.00033870
V        0.00284496       2.93386128       5.85402153      -8.97063282       0.00368670       0.00243688       0.00022957
V        1.46635997       4.39475343       7.31786425      -8.98926801      -0.00000705       0.00140381      -0.00031280
V        0.00434749       2.94093382       8.77015638      -8.95045858       0.00041934       0.00060829       0.00006096
V        1.46009322       4.38870609      10.24098950      -8.99668721       0.00005339       0.00094113      -0.00119625
V       -0.01079532       5.84695339       0.00599661      -9.44595479       0.00303943       0.00199590      -0.00408920
V        1.46483426       7.31414303       1.47583521      -9.09648365       0.00286391      -0.00095874       0.00038778
V        0.00170787       5.85453292       2.92572652      -9.41172002       0.00391445       0.00170000       0.00384970
V        1.46081868       7.31373936       4.39161385      -8.99056851       0.00027548      -0.00176654       0.00096493
V        0.00281327       5.85283522       5.85020289      -9.35832003       0.00021856      -0.00129652      -0.00101055
V        1.46241137       7.30771414       7.31663656      -9.19810143       0.00109804       0.00045232       0.00061995
V        0.00437645       5.85304885       8.78618689      -9.31958870      -0.00088731      -0.00064234       0.00131625
V        1.46089379       7.30627059      10.24350255      -9.09718019      -0.00044067       0.00008314       0.00031845
V        0.00155967       8.76379371      -0.00205346      -9.03430892       0.00201024       0.00063006      -0.00262800
V        1.45435792      10.25100207       1.47081492      -9.04120357      -0.00133312       0.00094520      -0.00023172
V        0.00691234       8.76922968       2.94049632      -8.96339566       0.00173581      -0.00063642       0.00240058
V        1.45494250      10.24671168       4.38936649      -8.93019903      -0.00001809      -0.00059255       0.00178672
V        0.00153092       8.78034705       5.85210995      -9.34786498      -0.00051923       0.00046973       0.00027548
V        1.46516902      10.24690863       7.31437906      -9.02570705       0.00015360       0.00027502       0.00100208
V       -0.00122586       8.77290111       8.77895071      -9.43599700      -0.00094839       0.00210713       0.00063518
V        1.45532910      10.25094605      10.24773137      -9.06668143      -0.00001566       0.00049017      -0.00021540
V        2.93088587       0.00379435       0.01605134      -9.04938401      -0.00038616      -0.00203583      -0.00164479
V        4.38665966       1.46673241       1.46659743      -8.94354637      -0.00000586       0.00030970      -0.00021857
V        2.93084149      -0.00173016       2.93547739      -8.98198808       0.00008724      -0.00247377       0.00229974
V        4.38817859       1.46341328       4.39884198      -8.91839700       0.00154142       0.00049443       0.00207954
V        2.92547713       0.00166323       5.83196899      -8.94157482      -0.00015346       0.00030636       0.00079965
V        4.38625737       1.46442132       7.31349524      -8.97325616       0.00015235       0.00011834       0.00003135
V        4.38924987       1.46898366      10.23561301      -8.95963567       0.00141942       0.00125904      -0.00246462
V        2.93157489       2.93232737       0.00134386      -8.94511395       0.00053968       0.00160100      -0.00255636
V        4.38934742       4.39606797       1.46500452      -8.92795975       0.00131800       0.00344645      -0.00039113
V        2.93182744       2.93060432       2.93316521      -8.92234830       0.00138559       0.00139849       0.00217789
V        4.38887064       4.39239514       4.39315563      -8.92423047       0.00112489       0.00043073      -0.00034171
V        2.92731778       2.92961412       5.84748445      -8.95250208       0.00030474      -0.00040229      -0.00077784
V        4.38698038       4.39713967       7.31788672      -8.92753552       0.00084094       0.00091805      -0.00041500
V        2.92706173       2.94649108       8.77807061      -8.92609759      -0.00065940       0.00054128       0.00076559
V        4.38862013       4.39616870      10.23668601      -8.92225196       0.00038160       0.00144727      -0.00007926
V        2.92522650       5.84524472       0.00196384      -9.02431245      -0.00138858      -0.00111273       0.00108465
V        4.39496077       7.31170884       1.47318119      -9.03380200       0.00050481      -0.00107333       0.00010039
V        2.92715292       5.85273812       2.93337321      -8.98120570      -0.00005954      -0.00118490      -0.00052738
V        4.39294540       7.31366166       4.39469988      -8.92851125       0.00078137      -0.00085050       0.00134734
V        2.92622670       5.85239345       5.85382532      -8.90706008       0.00094253       0.00022391       0.00025610
V        4.39137104       7.30859712       7.31734746      -8.92688878      -0.00019486       0.00006046       0.00075793
V        4.39358789       7.30929312      10.23976587      -9.03459825       0.00029079       0.00034360      -0.00068606
V        4.39003364      10.23651626       1.47291644      -9.02123546       0.00075979      -0.00175897       0.00053193
V        2.92832384       8.77945271       2.94105338      -9.04950749      -0.00030373       0.00073691       0.00066739
V        4.39234068      10.24185436       4.39576134      -8.92369998       0.00066583      -0.00075719       0.00085589
V        2.92452849       8.77660321       5.84872129      -8.95605165       0.00061799      -0.00064667       0.00145042
V        4.39082467      10.24317280       7.31420429      -8.96759260      -0.00019911      -0.00049277       0.00125674
V        2.92542279       8.76417604       8.77760115      -9.04327515       0.00103144       0.00006967      -0.00004531
V        4.39530451      10.24584381      10.24174617      -9.05811156       0.00063739       0.00058575       0.00033780
V        5.83518316      -0.00090249       0.00480451      -8.99902178       0.00028085      -0.00211595      -0.00191878
V        7.24959869       1.46846295       1.46934632      -8.90897052      -0.00198736      -0.00094286      -0.00045182
V        5.83922140      -0.00666914       2.93785337      -8.97579763      -0.00017321      -0.00297682       0.00160562
V        7.32253656       1.46475778       4.38314704      -9.03780464       0.00004085      -0.00200003      -0.00153603
V        5.85258040      -0.00011984       5.84672070      -8.95333585       0.00089139      -0.00063283      -0.00004217
V        7.30645438       1.46737181       7.31466873      -8.91331748      -0.00157828      -0.00013149      -0.00038714
V        5.86657274       0.00055397       8.77429009      -8.93800179       0.00073010       0.00066585       0.00018526
V        7.32080332       1.47364134      10.24722996      -8.97154792      -0.00058588       0.00052073       0.00087689
V        5.84336186       2.93954423      -0.00304894      -8.97298777      -0.00048302       0.00161068      -0.00359246
V        7.31040522       4.38432525       1.46240104      -9.31208031      -0.00124897      -0.00016045      -0.00187588
V        5.83994631       2.93187592       2.93425530      -9.02428347      -0.00028446       0.00133153       0.00209977
V        7.32296827       4.38344068       4.38554543      -9.09933339       0.00014167      -0.00102956      -0.00107377
V        5.85340222       2.92940638       5.85156503      -8.97701397       0.00054244      -0.00072813      -0.00080286
V        7.31420850       4.39651211       7.31522134      -8.98801815       0.00018644       0.00079943      -0.00123574
V        5.85079754       2.93564672       8.77585076      -8.96826700       0.00169663      -0.00045887       0.00019922
V        7.31901039       4.39177358      10.24335100      -8.99625726      -0.00103841      -0.00010831      -0.00173116
V        5.85905161       5.85345237      -0.00000935      -9.00030806       0.00121785      -0.00100221      -0.00032502
V        7.30992880       7.31558769       1.46658032      -8.99296272      -0.00330322      -0.00142099      -0.00009517
V        5.85482571       5.85363047       2.92775930      -8.97332660       0.00068707      -0.00155177      -0.00133220
V        7.31707767       7.31411811       4.39389771      -8.98978874      -0.00018022      -0.00183762       0.00051025
V        5.85695338       5.85301804       5.85187751      -8.94669898      -0.00059408       0.00051385       0.00087786
V        7.31669836       7.31588659       7.31524795      -9.20965738      -0.00121626      -0.00005226      -0.00032307
V        5.85537732       5.85490445       8.78106452      -8.90646122       0.00001338       0.00070390      -0.00006982
V        7.32012568       7.31280024      10.24130268      -8.98947321      -0.00034640      -0.00001579       0.00005808
V        5.85773284       8.77213655       0.00310685      -9.06005560       0.00121417       0.00196119       0.00135978
V        7.32064025      10.24588681       1.47338184      -8.96777650       0.00148589       0.00147555      -0.00053482
V        5.85031973       8.77599621       2.93490380      -8.98464342       0.00069119       0.00034863      -0.00014203
V        7.31613815      10.24101210       4.39187535      -8.93112441      -0.00089542      -0.00154764       0.00016976
V        5.85656792       8.77646062       5.85190263      -8.92935007       0.00018288      -0.00072669       0.00040371
V        7.31304568      10.23669629       7.31338057      -8.98532264       0.00117299       0.00108574       0.00174989
V        5.85929180       8.77373448       8.77827297      -9.01570634       0.00015288       0.00095062       0.00044201
V        7.32002604      10.24582171      10.24209345      -8.96025186      -0.00110574       0.00067520      -0.00001090
V        8.79732850       0.00856208       2.93639994      -8.84414794      -0.00066737       0.00053362      -0.00010838
V       10.24301381       1.46583972       4.44787308      -8.88480754      -0.00039651      -0.00211896       0.00070102
V        8.77322307      -0.00543217       5.86090930      -8.96035305      -0.00263743      -0.00315925       0.00189132
V       10.24541031       1.46695553       7.31381475      -8.94029660      -0.00012372       0.00033331       0.00104520
V       10.24375475       1.47638927      10.17896587      -8.83463770       0.00017971       0.00214078      -0.00293074
V        8.79852580       2.93554917       0.01417374      -9.28574907       0.00019710       0.00244957       0.00203730
V       10.24709378       4.38631978       4.40114200      -9.37377314       0.00143095       0.00123646       0.00082472
V        8.77520794       2.93203377       5.86162199      -9.05633872      -0.00363727       0.00221759       0.00059337
V       10.24398699       4.40029920       7.31988354      -9.21069861       0.00013530       0.00309302      -0.00130355
V        8.77306077       2.93949453       8.76431198      -8.91114815      -0.00243991       0.00125925      -0.00227647
V       10.24349783       4.38769806      10.23328137      -9.28779364       0.00013777      -0.00105197      -0.00119194
V        8.78203203       5.85522677      -0.00124065      -9.42162262      -0.00401237       0.00211810      -0.00444019
V       10.24364416       7.33087843       1.46606577      -9.24795572      -0.00062530       0.00103107       0.00056304
V        8.78124282       5.85316982       2.92665540      -9.48527027      -0.00393740       0.00216522       0.00377819
V       10.24269100       7.32137057       4.40020903      -9.27788099      -0.00011016      -0.00222080       0.00283085
V        8.77622270       5.85138384       5.85123665      -9.39078608       0.00122096      -0.00124469      -0.00056751
V        8.77564811       5.85603178       8.78422367      -9.34315227       0.00032105      -0.00078742       0.00088534
V       10.24019096       7.31552089      10.23611457      -9.27968399      -0.00041117       0.00025902      -0.00280123
V        8.77384741       8.75315516      -0.00417864      -8.94409933      -0.00291905       0.00049206      -0.00186196
V       10.24692535      10.18075871       1.47691598      -8.77471673      -0.00100454      -0.00184301       0.00060235
V        8.77329544       8.76530867       2.94175397      -8.92618120      -0.00205530      -0.00159675       0.00149366
V       10.24360146      10.24616066       4.38744807      -9.00347780      -0.00033040       0.00058052      -0.00091637
V        8.77478620       8.77964240       5.85435306      -9.36614438       0.00009364       0.00072654       0.00004604
V       10.24269080      10.23224142       7.31380010      -9.19667161      -0.00077585      -0.00060542       0.00119075
V        8.77561469       8.77824499       8.77472874      -9.33970042      -0.00035391       0.00188591       0.00015624
V       10.24250541      10.24833685      10.24862386      -9.03710061      -0.00028468       0.00020780       0.00099623
W       10.25184795       4.45923705       1.45595484      -6.77736660      -0.00029558      -0.00394548      -0.00092698
W       10.24132836       7.31900157       7.31769198      -6.67067848       0.00039964      -0.00047005       0.00016224
Zr       2.92583269       0.01295519       8.77324680      -7.90885881      -0.00130717       0.00095409       0.00187330
Zr       8.80776487       0.03223578       0.02295826      -7.87139817      -0.00132699       0.00104805       0.00124051
