127
Lattice="12.13407612154073 -0.002448297464165054 0.003365587388845699 -0.0024481550187637523 12.149112329652313 -0.004020308910634898 0.003365621958249256 -0.0040202511867883746 12.142100690539106" Properties=species:S:1:pos:R:3:forces:R:3 energy=-1149.3669853947117 free_energy=-1149.3669853947117 stress="0.005977629850080907 -0.000570200723099472 -0.001071673240424528 -0.000570200723099472 0.005460484706123949 0.001416083010031232 -0.001071673240424528 0.001416083010031232 0.0058612675169071845" pbc="T T T"
Cr      -0.00532589       3.01271781       9.05264975      -0.00411483      -0.00088241       0.00182106
Cr       1.50014178      10.62977641      10.63082976       0.00106462       0.00153536      -0.00202487
Cr       7.60377628       1.51569841      10.59544729       0.00036252      -0.00041661       0.00062437
Cr      10.52577419       1.50992568       4.54703947       0.00005460       0.00037958       0.00043390
Cr       9.13801933       0.00283561       9.12140352      -0.00104915      -0.00067109       0.00304439
Cr       9.06750396       6.01432050       5.96494625      -0.00217830       0.00052707      -0.00172934
Ti       0.19158340       0.19259789       5.88721363       0.00087586      -0.00175664      -0.00183742
Ti       4.51781091      10.69180194      10.65515619      -0.00152084      -0.00001646       0.00039356
Ti       7.63840624       1.48996322       7.57560532       0.00241772       0.00023503      -0.00136807
Ti       7.63575114       4.50173229       7.49730565       0.00206595      -0.00080096       0.00220806
Ti       6.07380252       9.12215120       0.01869829       0.00133041      -0.00329830       0.00036446
Ti      10.59369860       1.49769076       1.40289029      -0.00322558      -0.00012268      -0.00072046
Ti       9.01353958       2.98432776       3.00998650       0.00487533       0.00225483       0.00032664
Ti      10.64400728       4.53618363       4.53632285      -0.00339289      -0.00018379       0.00156739
Ti       9.10087143       6.02145961      -0.05621188       0.00002424       0.00122753       0.00025892
Ti      10.66193362       7.39292435       7.53374665      -0.00144017      -0.00141251      -0.00055048
Ti       9.05469192       9.10068036       9.11007609      -0.00016626      -0.00020071       0.00077501
V       -0.00709454      -0.07689641      -0.10669635       0.00081294       0.00001720      -0.00216103
V        1.43191605       1.55942858       1.32395218      -0.00039270      -0.00014764       0.00145219
V       -0.17993809       0.02598900       3.02783931       0.00130642       0.00382075       0.00350576
V        2.91088223       2.87905390       6.01437254      -0.00160558       0.00092130       0.00073908
V        1.53130276       1.52795543       7.75482420       0.00146073       0.00154109      -0.00337411
V        0.01494944      -0.00069151       9.09616072      -0.00242415      -0.00269645       0.00321758
V        1.46028814       1.51349548      10.59075344       0.00173133      -0.00046879       0.00201628
V       -0.00967116       3.05261201      -0.06236135       0.00037610       0.00289768      -0.00136697
V        1.49143073       4.55490058       1.48850530      -0.00315099      -0.00160833      -0.00243209
V        0.18004657       2.75365384       3.23631812      -0.00263222       0.00425114      -0.00749493
V        1.51483617       4.57207918       4.56592306       0.00068040       0.00158702      -0.00118441
V        0.06928104       2.94380562       6.04569236       0.00241970      -0.00438041      -0.00309611
V        1.51774689       4.46630598       7.56551648       0.00092111      -0.00072314       0.00303465
V       -0.01931348       6.07407540      -0.02257138       0.00047502      -0.00010003      -0.00169542
V        1.53563564       7.56552174       1.44034209       0.00245500       0.00095507       0.00068474
V        0.00000042       6.04910058       2.95665219       0.00260634       0.00063036      -0.00147563
V        1.57833066       7.52141325       4.62859012       0.00221319       0.00238570      -0.00022607
V        0.11550365       5.95090823       6.07339707      -0.00369496       0.00056910       0.00154160
V        1.51610023       7.52884206       7.58962589       0.00416692       0.00168754       0.00087003
V        0.03483813       6.00254555       9.10192081      -0.00018655       0.00019034       0.00095611
V        1.52899210       7.58190689      10.62518434       0.00143519      -0.00373645      -0.00000848
V       -0.01066939       9.12573319      -0.05357467       0.00089894      -0.00008095       0.00025421
V        1.54168129      10.64311555       1.40751011       0.00140839       0.00134011       0.00198448
V        1.59299188      10.42185001       4.75193254       0.00184348       0.00201197       0.00126003
V        0.06076300       9.10745673       6.09217994      -0.00048228      -0.00012892       0.00005755
V        1.56080466      10.60087533       7.62738680      -0.00101414      -0.00151400       0.00046563
V        2.94837669       0.02630117       0.00716564       0.00090851      -0.00155656      -0.00162692
V        4.53659981       1.55385972       1.49712111      -0.00017067       0.00115568      -0.00021907
V        4.67972160       1.56257124       4.62404054       0.00361259       0.00004391       0.00191775
V        3.09195260      -0.06132168       6.25401264      -0.00152483       0.00186023      -0.00018480
V        4.54178561       1.51046136       7.61367962       0.00129604      -0.00483238       0.00173679
V        2.98685629      -0.02054296       9.11614955       0.00118198      -0.00017410       0.00010418
V        4.51631667       1.49823187      10.65092705      -0.00016909      -0.00034028       0.00041087
V        3.03673649       3.05126308      -0.02286145       0.00176716       0.00007786       0.00062874
V        4.55025696       4.57316383       1.48032900      -0.00163182       0.00065754      -0.00255616
V        4.55942308       4.54127818       4.56515263       0.00290828       0.00547897      -0.00118709
V        4.53012409       4.48029796       7.56228151       0.00086717       0.00189964      -0.00046531
V        3.06169661       3.00841110       9.07178263      -0.00505081       0.00062361      -0.00811825
V        4.53498261       4.52440772      10.58282191       0.00149732      -0.00151233       0.00121379
V        3.01579488       6.09781342      -0.03090296       0.00197540       0.00407645       0.00046259
V        4.50422970       7.63165499       1.54615310      -0.00046478      -0.00188378      -0.00014478
V        4.56510294       7.59192781       4.53545677      -0.00011608       0.00012930      -0.00205997
V        3.03882229       5.99881469       6.09293885      -0.00348598      -0.00689815      -0.00469503
V        3.02962145       6.04260880       9.07994789      -0.00118968       0.00009636       0.00043769
V        4.48062360       7.60352394      10.60822911      -0.00150213      -0.00003308       0.00378619
V        2.96247610       9.12902203       0.02678324       0.00137532      -0.00105561      -0.00173519
V        4.46267023      10.67892680       1.55976469       0.00060805      -0.00059923       0.00095062
V        3.06020109       9.11555930       3.04527217       0.00219070      -0.00015342      -0.00050444
V        4.57119563      10.56105290       4.61551018       0.00111613       0.00006760       0.00045901
V        3.07123080       9.06175080       6.12321419      -0.00261098      -0.00010787      -0.00181183
V        4.56408970      10.61195615       7.64987384       0.00082746       0.00489863       0.00195844
V        3.00575930       9.09453112       9.14318222      -0.00287511      -0.00119426       0.00274382
V        6.06741008       0.06432036       0.04876887       0.00156750      -0.00172899      -0.00033011
V        7.50363818       1.48738646       1.46993782      -0.00090631       0.00124965      -0.00054605
V        6.02360016      -0.00652277       3.03093450      -0.00061876      -0.00165140      -0.00093720
V        7.49497913       1.48927109       4.56759533      -0.00042264       0.00024869       0.00148659
V        6.01727383      -0.07124828       6.07231554      -0.00150495       0.00126655      -0.00095705
V        6.10336233       0.08160842       9.18183411      -0.00283758      -0.00164887      -0.00110034
V        6.05933880       3.01883512      -0.03500283       0.00094950      -0.00100978       0.00028212
V        7.49805973       4.54329737       1.50518780      -0.00191746       0.00038457       0.00013500
V        6.06487448       3.05863570       2.99880142       0.00196996       0.00218993      -0.00108315
V        7.58636725       4.57217679       4.56452047       0.00136430      -0.00109762       0.00071645
V        5.96486567       3.01834670       6.00938677      -0.00265542      -0.00001991      -0.00355399
V        6.02337916       2.96830738       9.16048440      -0.00163524       0.00176783      -0.00030283
V        7.55925992       4.49502005      10.53858587       0.00012133      -0.00018986       0.00136134
V        7.57121121       7.60861630       1.55693055       0.00075771       0.00000312      -0.00025008
V        6.07788243       6.08301299       3.03509072       0.00237475      -0.00073438       0.00217273
V        7.52260299       7.50303761       4.46471480      -0.00142938      -0.00020866      -0.00084140
V        6.02007880       6.04453596       5.99852635      -0.00164312      -0.00067901      -0.00012889
V        7.56232655       7.39249053       7.53197091       0.00271905       0.00059775       0.00011504
V        6.04828076       6.03014075       9.08009523       0.00119332      -0.00218396       0.00001950
V        7.51109505       7.54483775      10.54578132       0.00022325      -0.00264099       0.00134810
V        7.54385286      10.66490810       1.52254840       0.00070796       0.00094992      -0.00001571
V        6.01862818       9.12161863       3.01867104      -0.00088776      -0.00031477      -0.00093095
V        7.46809676      10.68925858       4.44344007      -0.00030123      -0.00010576       0.00174248
V        6.05533530       9.09713447       6.05848694       0.00245752       0.00010076      -0.00039636
V        7.55179635      10.81652769       7.66759443      -0.00090843      -0.00056421      -0.00037135
V        6.10686682       9.10588749       9.09530155      -0.00042092      -0.00056055      -0.00033132
V        7.59308879      10.71904336      10.60645527       0.00150538       0.00043092       0.00093858
V        8.98881219       0.03053192      -0.08860240      -0.00016520      -0.00147068       0.00159901
V        9.02619185      -0.00495866       3.01093292       0.00252773       0.00103371       0.00056626
V        9.18090135       0.04144501       5.99952230      -0.00012632       0.00088322       0.00023443
V       10.65785059       1.53706502       7.62743616      -0.00301764       0.00456657      -0.00182461
V       10.60098083       1.49789196      10.54118414       0.00108369      -0.00195762      -0.00072719
V        9.02117590       3.02462766      -0.08976901      -0.00037529      -0.00015006       0.00077734
V       10.69964714       4.48763919       1.49581739      -0.00111599      -0.00122269       0.00075539
V        9.22454500       2.90190907       5.96162599       0.00117966      -0.00143907      -0.00027581
V       10.65971708       4.46417598       7.57390462       0.00270329      -0.00126924      -0.00235067
V        9.14321157       2.99890528       9.16414154      -0.00226534      -0.00108323      -0.00200941
V       10.65606905       4.45057727      10.54502724       0.00137847      -0.00110216       0.00040699
V       10.56863524       7.55427818       1.41807958       0.00077731       0.00072227       0.00221120
V        9.06567593       6.03968582       2.92008631       0.00002687       0.00129285       0.00014233
V       10.54596528       7.32776026       4.55003309      -0.00071454       0.00216872       0.00213440
V        9.09915073       6.03570702       9.17893765      -0.00103602      -0.00154425      -0.00080733
V       10.69058973       7.57886567      10.59959274      -0.00251883      -0.00120274       0.00181286
V        9.07458505       9.12487476      -0.03137288      -0.00056741      -0.00080217       0.00098709
V       10.49807319      10.71245824       1.39150956       0.00005564       0.00027375       0.00124583
V        9.00237555       9.11289934       2.93767284       0.00094803       0.00044660       0.00225829
V       10.52984689      10.78373925       4.50439959      -0.00214164       0.00157152       0.00010242
V       10.69324611      10.80955399       7.64536187      -0.00208465      -0.00288881      -0.00042905
V       10.57511745      10.69478034      10.58052181       0.00064726       0.00090336       0.00133623
W        1.51358242       4.52527435      10.58826359       0.00168567       0.00022204      -0.00091422
W        0.02292408       9.12670128       9.10830214      -0.00045991       0.00034757       0.00113194
W        3.02350721       3.05686315       3.02691983      -0.00208122       0.00071997      -0.00214895
W        3.03777608       6.07814407       3.02378624       0.00206173       0.00050568       0.00055432
W        4.55291435       7.56199924       7.58803496      -0.00243610      -0.00223251      -0.00145232
W        6.04118571       6.08947002      -0.02445461       0.00034614       0.00191073       0.00226124
Zr      -0.07027773       9.12130252       3.04999799       0.00313276       0.00266854       0.00011404
Zr       2.66269254       0.24429067       3.39560814      -0.00745612      -0.00207058      -0.00073615
Zr       9.10030576       9.15096934       6.01363910       0.00123465       0.00000448       0.00218954
