 vasp.6.4.2 20Jul23 (build Sep 20 2024 16:56:05) complex                         
 executed on              LinuxNV date 2025.04.25  12:07:25
 running    4 mpi-ranks, with    8 threads/rank, on    1 nodes
 distrk:  each k-point on    4 cores,    1 groups
 distr:  one band on NCORE=   1 cores,    4 groups
 OpenACC runtime initialized ...    4 GPUs detected


--------------------------------------------------------------------------------------------------------


 INCAR:
   ENCUT = 520.000000
   POTIM = 0.200000
   SIGMA = 0.200000
   EDIFF = 1.00e-06
   EDIFFG = -1.00e-02
   ALGO = Normal
   GGA = PE
   PREC = Accurate
   IBRION = 2
   ISIF = 2
   ISMEAR = 1
   LORBIT = 11
   NELM = 100
   NSW = -1
   LCHARG = .TRUE.
   LWAVE = .FALSE.
   LREAL = .FALSE.

 POTCAR:    PAW_PBE Cr_pv 02Aug2007               
 POTCAR:    PAW_PBE Ti_pv 07Sep2000               
 POTCAR:    PAW_PBE V_pv 07Sep2000                
 POTCAR:    PAW_PBE W_sv 04Sep2015                
 POTCAR:    PAW_PBE Zr_sv 04Jan2005               
 POTCAR:    PAW_PBE Cr_pv 02Aug2007               
   SHA256 =  c9a7df34d3cdbacf1090e328ef39c0b420964e11c23f63548d1ac9dd218cdba0 Cr_pv/POTCAR          
   COPYR  = (c) Copyright 02Aug2007 Georg Kresse                                                    
   COPYR  = This file is part of the software VASP. Any use, copying, and all other rights are regul
   COPYR  = If you do not have a valid VASP license, you may not use, copy or distribute this file. 
   VRHFIN =Cr : p6d5s1                                                                              
   LEXCH  = PE                                                                                      
   EATOM  =  1647.9177 eV,  121.1185 Ry                                                             
                                                                                                    
   TITEL  = PAW_PBE Cr_pv 02Aug2007                                                                 
   LULTRA =        F    use ultrasoft PP ?                                                          
   IUNSCR =        1    unscreen: 0-lin 1-nonlin 2-no                                               
   RPACOR =    2.080    partial core radius                                                         
   POMASS =   51.996; ZVAL   =   12.000    mass and valenz                                          
   RCORE  =    2.300    outmost cutoff radius                                                       
   RWIGS  =    2.500; RWIGS  =    1.323    wigner-seitz radius (au A)                               
   ENMAX  =  265.681; ENMIN  =  199.261 eV                                                          
   ICORE  =        3    local potential                                                             
   LCOR   =        T    correct aug charges                                                         
   LPAW   =        T    paw PP                                                                      
   EAUG   =  519.424                                                                                
   DEXC   =    0.000                                                                                
   RMAX   =    2.356    core radius for proj-oper                                                   
   RAUG   =    1.300    factor for augmentation sphere                                              
   RDEP   =    2.447    radius for radial grids                                                     
   RDEPT  =    1.882    core radius for aug-charge                                                  
                                                                                                    
   Atomic configuration                                                                             
    8 entries                                                                                       
     n  l   j            E        occ.                                                              
     1  0  0.50     -5880.4963   2.0000                                                             
     2  0  0.50      -667.0865   2.0000                                                             
     2  1  1.50      -560.6250   6.0000                                                             
     3  0  0.50       -73.9860   2.0000                                                             
     3  1  1.50       -45.4378   6.0000                                                             
     3  2  2.50        -2.9137   5.0000                                                             
     4  0  0.50        -4.0071   1.0000                                                             
     4  3  2.50        -1.3606   0.0000                                                             
   Description                                                                                      
     l       E           TYP  RCUT    TYP  RCUT                                                     
     1    -45.4377911     23  2.000                                                                 
     1      1.3605826     23  2.000                                                                 
     2     -2.9136672     23  2.300                                                                 
     2     -4.2742498     23  2.300                                                                 
     0     -4.0071320     23  2.300                                                                 
     0      9.4498803     23  2.300                                                                 
     3      2.7211652     23  2.300                                                                 
  local pseudopotential read in
  partial core-charges read in
  partial kinetic energy density read in
  atomic valenz-charges read in
  non local Contribution for L=            1  read in
    real space projection operators read in
  non local Contribution for L=            1  read in
    real space projection operators read in
  non local Contribution for L=            2  read in
    real space projection operators read in
  non local Contribution for L=            2  read in
    real space projection operators read in
  non local Contribution for L=            0  read in
    real space projection operators read in
  non local Contribution for L=            0  read in
    real space projection operators read in
    PAW grid and wavefunctions read in
 
   number of l-projection  operators is LMAX  =            6
   number of lm-projection operators is LMMAX =           18
 
 POTCAR:    PAW_PBE Ti_pv 07Sep2000               
   SHA256 =  f757a1b2c6d082f4c628fa3d987464a8763bf92e53844ac0500b0e2ddc9ce5c0 Ti_pv/POTCAR          
   COPYR  = (c) Copyright 07Sep2000 Georg Kresse                                                    
   COPYR  = This file is part of the software VASP. Any use, copying, and all other rights are regul
   COPYR  = If you do not have a valid VASP license, you may not use, copy or distribute this file. 
   VRHFIN =Ti: d3 s1                                                                                
   LEXCH  = PE                                                                                      
   EATOM  =  1042.5995 eV,   76.6289 Ry                                                             
                                                                                                    
   TITEL  = PAW_PBE Ti_pv 07Sep2000                                                                 
   LULTRA =        F    use ultrasoft PP ?                                                          
   IUNSCR =        1    unscreen: 0-lin 1-nonlin 2-no                                               
   RPACOR =    2.200    partial core radius                                                         
   POMASS =   47.880; ZVAL   =   10.000    mass and valenz                                          
   RCORE  =    2.500    outmost cutoff radius                                                       
   RWIGS  =    2.500; RWIGS  =    1.323    wigner-seitz radius (au A)                               
   ENMAX  =  222.335; ENMIN  =  166.751 eV                                                          
   RCLOC  =    1.701    cutoff for local pot                                                        
   LCOR   =        T    correct aug charges                                                         
   LPAW   =        T    paw PP                                                                      
   EAUG   =  482.848                                                                                
   DEXC   =    0.000                                                                                
   RMAX   =    2.564    core radius for proj-oper                                                   
   RAUG   =    1.300    factor for augmentation sphere                                              
   RDEP   =    2.538    radius for radial grids                                                     
   RDEPT  =    1.952    core radius for aug-charge                                                  
                                                                                                    
   Atomic configuration                                                                             
    8 entries                                                                                       
     n  l   j            E        occ.                                                              
     1  0  0.50     -4865.3608   2.0000                                                             
     2  0  0.50      -533.1368   2.0000                                                             
     2  1  1.50      -440.5031   6.0000                                                             
     3  0  0.50       -59.3186   2.0000                                                             
     3  1  1.50       -35.7012   6.0000                                                             
     3  2  2.50        -1.9157   3.0000                                                             
     4  0  0.50        -3.7291   1.0000                                                             
     4  3  2.50        -1.3606   0.0000                                                             
   Description                                                                                      
     l       E           TYP  RCUT    TYP  RCUT                                                     
     1    -35.7012140     23  2.300                                                                 
     1     -1.3605826     23  2.300                                                                 
     2     -1.9156996     23  2.500                                                                 
     2     -0.4063033     23  2.500                                                                 
     0     -3.7290856     23  2.500                                                                 
     0     20.4087390     23  2.500                                                                 
  local pseudopotential read in
  partial core-charges read in
  partial kinetic energy density read in
  atomic valenz-charges read in
  non local Contribution for L=            1  read in
    real space projection operators read in
  non local Contribution for L=            1  read in
    real space projection operators read in
  non local Contribution for L=            2  read in
    real space projection operators read in
  non local Contribution for L=            2  read in
    real space projection operators read in
  non local Contribution for L=            0  read in
    real space projection operators read in
  non local Contribution for L=            0  read in
    real space projection operators read in
    PAW grid and wavefunctions read in
 
   number of l-projection  operators is LMAX  =            6
   number of lm-projection operators is LMMAX =           18
 
 POTCAR:    PAW_PBE V_pv 07Sep2000                
   SHA256 =  1175d3c8cb4ffd1d150a520fa74fae5c3ec72c0849b5615a94a5372dd2cf07f7 V_pv/POTCAR           
   COPYR  = (c) Copyright 07Sep2000 Georg Kresse                                                    
   COPYR  = This file is part of the software VASP. Any use, copying, and all other rights are regul
   COPYR  = If you do not have a valid VASP license, you may not use, copy or distribute this file. 
   VRHFIN =V: p6 d4 s1                                                                              
   LEXCH  = PE                                                                                      
   EATOM  =  1321.6206 eV,   97.1364 Ry                                                             
                                                                                                    
   TITEL  = PAW_PBE V_pv 07Sep2000                                                                  
   LULTRA =        F    use ultrasoft PP ?                                                          
   IUNSCR =        1    unscreen: 0-lin 1-nonlin 2-no                                               
   RPACOR =    1.700    partial core radius                                                         
   POMASS =   50.941; ZVAL   =   11.000    mass and valenz                                          
   RCORE  =    2.300    outmost cutoff radius                                                       
   RWIGS  =    2.300; RWIGS  =    1.217    wigner-seitz radius (au A)                               
   ENMAX  =  263.673; ENMIN  =  197.755 eV                                                          
   RCLOC  =    1.779    cutoff for local pot                                                        
   LCOR   =        T    correct aug charges                                                         
   LPAW   =        T    paw PP                                                                      
   EAUG   =  598.473                                                                                
   DEXC   =    0.000                                                                                
   RMAX   =    2.359    core radius for proj-oper                                                   
   RAUG   =    1.300    factor for augmentation sphere                                              
   RDEP   =    2.430    radius for radial grids                                                     
   RDEPT  =    1.700    core radius for aug-charge                                                  
                                                                                                    
   Atomic configuration                                                                             
    8 entries                                                                                       
     n  l   j            E        occ.                                                              
     1  0  0.50     -5360.7193   2.0000                                                             
     2  0  0.50      -598.4546   2.0000                                                             
     2  1  1.50      -499.0155   6.0000                                                             
     3  0  0.50       -66.5711   2.0000                                                             
     3  1  1.50       -40.5282   6.0000                                                             
     3  2  2.50        -2.4291   4.0000                                                             
     4  0  0.50        -3.8743   1.0000                                                             
     4  3  2.50        -1.3606   0.0000                                                             
   Description                                                                                      
     l       E           TYP  RCUT    TYP  RCUT                                                     
     1    -40.5282431     23  2.000                                                                 
     1      5.4423304     23  2.000                                                                 
     2     -2.4290905     23  2.300                                                                 
     2     -1.0472488     23  2.300                                                                 
     0     -3.8742754     23  2.300                                                                 
     0     27.2116520     23  2.300                                                                 
  local pseudopotential read in
  partial core-charges read in
  partial kinetic energy density read in
  atomic valenz-charges read in
  non local Contribution for L=            1  read in
    real space projection operators read in
  non local Contribution for L=            1  read in
    real space projection operators read in
  non local Contribution for L=            2  read in
    real space projection operators read in
  non local Contribution for L=            2  read in
    real space projection operators read in
  non local Contribution for L=            0  read in
    real space projection operators read in
  non local Contribution for L=            0  read in
    real space projection operators read in
    PAW grid and wavefunctions read in
 
   number of l-projection  operators is LMAX  =            6
   number of lm-projection operators is LMMAX =           18
 
 POTCAR:    PAW_PBE W_sv 04Sep2015                
   SHA256 =  931c2d770f65867ef30f3db3421922900fc0890ebac5c3e12f63b6a2064023d7 W_sv/POTCAR           
   COPYR  = (c) Copyright 04Sep2015 Georg Kresse                                                    
   COPYR  = This file is part of the software VASP. Any use, copying, and all other rights are regul
   COPYR  = If you do not have a valid VASP license, you may not use, copy or distribute this file. 
   VRHFIN =W : 5p6s5d                                                                               
   LEXCH  = PE                                                                                      
   EATOM  =  1865.5791 eV,  137.1162 Ry                                                             
                                                                                                    
   TITEL  = PAW_PBE W_sv 04Sep2015                                                                  
   LULTRA =        F    use ultrasoft PP ?                                                          
   IUNSCR =        1    unscreen: 0-lin 1-nonlin 2-no                                               
   RPACOR =    2.330    partial core radius                                                         
   POMASS =  183.850; ZVAL   =   14.000    mass and valenz                                          
   RCORE  =    2.500    outmost cutoff radius                                                       
   RWIGS  =    2.750; RWIGS  =    1.455    wigner-seitz radius (au A)                               
   ENMAX  =  223.057; ENMIN  =  167.293 eV                                                          
   ICORE  =        3    local potential                                                             
   LCOR   =        T    correct aug charges                                                         
   LPAW   =        T    paw PP                                                                      
   EAUG   =  373.438                                                                                
   DEXC   =    0.000                                                                                
   RMAX   =    2.565    core radius for proj-oper                                                   
   RAUG   =    1.300    factor for augmentation sphere                                              
   RDEP   =    2.539    radius for radial grids                                                     
   RDEPT  =    2.126    core radius for aug-charge                                                  
                                                                                                    
   Atomic configuration                                                                             
   15 entries                                                                                       
     n  l   j            E        occ.                                                              
     1  0  0.50    -69465.5834   2.0000                                                             
     2  0  0.50    -11986.2640   2.0000                                                             
     2  1  1.50    -10479.8613   6.0000                                                             
     3  0  0.50     -2759.0756   2.0000                                                             
     3  1  1.50     -2313.1855   6.0000                                                             
     3  2  2.50     -1801.1183  10.0000                                                             
     4  0  0.50      -567.6789   2.0000                                                             
     4  1  1.50      -421.4692   6.0000                                                             
     4  2  2.50      -236.3471  10.0000                                                             
     4  3  3.50       -31.2665  14.0000                                                             
     5  0  0.50       -77.1084   2.0000                                                             
     6  0  0.50        -5.1438   1.0000                                                             
     5  1  1.50       -41.3856   6.0000                                                             
     5  2  2.50        -3.3185   5.0000                                                             
     5  3  2.50        -1.3606   0.0000                                                             
   Description                                                                                      
     l       E           TYP  RCUT    TYP  RCUT                                                     
     0    -77.1084470     23  2.100                                                                 
     0     -5.1437956     23  2.300                                                                 
     1    -41.3855615     23  2.500                                                                 
     1     -2.7211652     23  2.500                                                                 
     2     -3.3185025     23  2.500                                                                 
     2     -1.5965151     23  2.500                                                                 
     3     -1.3605826     23  2.500                                                                 
  local pseudopotential read in
  partial core-charges read in
  partial kinetic energy density read in
  kinetic energy density of atom read in
  atomic valenz-charges read in
  non local Contribution for L=            0  read in
    real space projection operators read in
  non local Contribution for L=            0  read in
    real space projection operators read in
  non local Contribution for L=            1  read in
    real space projection operators read in
  non local Contribution for L=            1  read in
    real space projection operators read in
  non local Contribution for L=            2  read in
    real space projection operators read in
  non local Contribution for L=            2  read in
    real space projection operators read in
    PAW grid and wavefunctions read in
 
   number of l-projection  operators is LMAX  =            6
   number of lm-projection operators is LMMAX =           18
 
 POTCAR:    PAW_PBE Zr_sv 04Jan2005               
   SHA256 =  25aed69cb10325f9d37c5c68912b61a17387d1f8e4f1d804860ffa10c8a4bf76 Zr_sv/POTCAR          
   COPYR  = (c) Copyright 04Jan2005 Georg Kresse                                                    
   COPYR  = This file is part of the software VASP. Any use, copying, and all other rights are regul
   COPYR  = If you do not have a valid VASP license, you may not use, copy or distribute this file. 
   VRHFIN =Zr: 4s4p5s4d                                                                             
   LEXCH  = PE                                                                                      
   EATOM  =  1284.2219 eV,   94.3876 Ry                                                             
                                                                                                    
   TITEL  = PAW_PBE Zr_sv 04Jan2005                                                                 
   LULTRA =        F    use ultrasoft PP ?                                                          
   IUNSCR =        1    unscreen: 0-lin 1-nonlin 2-no                                               
   RPACOR =    2.200    partial core radius                                                         
   POMASS =   91.224; ZVAL   =   12.000    mass and valenz                                          
   RCORE  =    2.500    outmost cutoff radius                                                       
   RWIGS  =    3.070; RWIGS  =    1.625    wigner-seitz radius (au A)                               
   ENMAX  =  229.898; ENMIN  =  172.424 eV                                                          
   ICORE  =        3    local potential                                                             
   LCOR   =        T    correct aug charges                                                         
   LPAW   =        T    paw PP                                                                      
   EAUG   =  461.257                                                                                
   DEXC   =    0.000                                                                                
   RMAX   =    2.561    core radius for proj-oper                                                   
   RAUG   =    1.300    factor for augmentation sphere                                              
   RDEP   =    2.597    radius for radial grids                                                     
   RDEPT  =    2.007    core radius for aug-charge                                                  
                                                                                                    
   Atomic configuration                                                                             
   11 entries                                                                                       
     n  l   j            E        occ.                                                              
     1  0  0.50    -17820.0161   2.0000                                                             
     2  0  0.50     -2467.0882   2.0000                                                             
     2  1  1.50     -2199.6095   6.0000                                                             
     3  0  0.50      -402.4863   2.0000                                                             
     3  1  1.50      -315.3675   6.0000                                                             
     3  2  2.50      -172.4472  10.0000                                                             
     4  0  0.50       -52.4146   2.0000                                                             
     5  0  0.50        -3.8421   1.0000                                                             
     4  1  1.50       -30.5054   6.0000                                                             
     4  2  2.50        -2.3341   3.0000                                                             
     4  3  2.50        -1.3606   0.0000                                                             
   Description                                                                                      
     l       E           TYP  RCUT    TYP  RCUT                                                     
     0    -52.4145962     23  2.200                                                                 
     0     -3.8421270     23  2.500                                                                 
     1    -30.5053914     23  2.200                                                                 
     1     20.4087390     23  2.200                                                                 
     2     -2.3340816     23  2.500                                                                 
     2     -0.6120942     23  2.500                                                                 
     3     -4.0817478     23  2.500                                                                 
  local pseudopotential read in
  partial core-charges read in
  partial kinetic energy density read in
  atomic valenz-charges read in
  non local Contribution for L=            0  read in
    real space projection operators read in
  non local Contribution for L=            0  read in
    real space projection operators read in
  non local Contribution for L=            1  read in
    real space projection operators read in
  non local Contribution for L=            1  read in
    real space projection operators read in
  non local Contribution for L=            2  read in
    real space projection operators read in
  non local Contribution for L=            2  read in
    real space projection operators read in
    PAW grid and wavefunctions read in
 
   number of l-projection  operators is LMAX  =            6
   number of lm-projection operators is LMMAX =           18
 
 -----------------------------------------------------------------------------
|                                                                             |
|               ----> ADVICE to this user running VASP <----                  |
|                                                                             |
|     You have a (more or less) 'large supercell' and for larger cells it     |
|     might be more efficient to use real-space projection operators.         |
|     Therefore, try LREAL= Auto in the INCAR file.                           |
|     Mind: For very accurate calculation, you might also keep the            |
|     reciprocal projection scheme (i.e. LREAL=.FALSE.).                      |
|                                                                             |
 -----------------------------------------------------------------------------

  PAW_PBE Cr_pv 02Aug2007               :
 energy of atom  1       EATOM=-1647.9177
 kinetic energy error for atom=    0.0057 (will be added to EATOM!!)
  PAW_PBE Ti_pv 07Sep2000               :
 energy of atom  2       EATOM=-1042.5995
 kinetic energy error for atom=    0.0019 (will be added to EATOM!!)
  PAW_PBE V_pv 07Sep2000                :
 energy of atom  3       EATOM=-1321.6206
 kinetic energy error for atom=    0.0054 (will be added to EATOM!!)
  PAW_PBE W_sv 04Sep2015                :
 energy of atom  4       EATOM=-1865.5791
 kinetic energy error for atom=    0.0026 (will be added to EATOM!!)
  PAW_PBE Zr_sv 04Jan2005               :
 energy of atom  5       EATOM=-1284.2219
 kinetic energy error for atom=    0.0043 (will be added to EATOM!!)
 
 
 POSCAR: Cr Ti V  W  Zr
  positions in cartesian coordinates
  No initial velocities read in
 exchange correlation table for  LEXCH =        8
   RHO(1)=    0.500       N(1)  =     2000
   RHO(2)=  100.500       N(2)  =     4000
 


--------------------------------------------------------------------------------------------------------


 ion  position               nearest neighbor table
   1  0.003  0.404  0.005-  21 2.50  49 2.54  17 2.54  25 2.56  24 2.57 107 2.60  44 2.60  10 2.62
                            48 2.92  45 2.98  26 3.00 111 3.04
   2  0.402  0.004  0.800-   3 2.53  59 2.55  75 2.56  80 2.56  81 2.56  39 2.58  56 2.59  54 2.60
                            84 2.93  55 2.95  60 2.97  38 2.98  76 3.02  74 3.04
   3  0.401  0.197  0.801-  63 2.48  84 2.51   2 2.53  60 2.54  38 2.56  66 2.56  43 2.56  85 2.57
                            39 2.95  81 2.97  59 3.00  88 3.03  64 3.04
   4  0.397  0.601  0.594-  46 2.50  51 2.52  92 2.53  98 2.55  69 2.56  74 2.57  70 2.58   9 2.80
                            50 2.99  97 3.02  93 3.05 119 3.07 118 3.09
   5  0.599  0.398  0.397- 114 2.54 119 2.57  61 2.58  86 2.59 120 2.59  87 2.60 109 2.60  91 2.65
                            82 3.03 110 3.03 121 3.03
   6  0.805  0.004  0.203-  18 2.54  99 2.55 104 2.57  77 2.58 100 2.60 122 2.62  13 2.62  94 2.64
                           105 2.96 115 2.97   7 3.03  14 3.04
   7  0.997  0.206  0.197- 104 2.60  21 2.60  99 2.62  17 2.63  18 2.69  46 2.69  41 2.71  13 2.71
                            12 2.89 103 2.91  22 2.95  45 2.97   6 3.03
   8  0.199  0.803  0.002-  57 2.64  30 2.66  52 2.67  35 2.68  55 2.76  48 2.76  71 2.77  29 2.77
                            36 2.90  34 2.94 123 3.02  72 3.04
   9  0.380  0.377  0.581- 118 2.61 119 2.67  63 2.68  87 2.68  66 2.72  93 2.80   4 2.80  42 2.85
                            62 2.87  46 2.92
  10  0.802  0.204  0.804- 102 2.56 111 2.57   1 2.62 103 2.66 106 2.67  20 2.67  84 2.68  79 2.70
                            17 2.93  24 2.94 107 2.97  83 2.99
  11  0.792  0.590  0.799- 111 2.54  29 2.60 112 2.64  87 2.65  93 2.68 114 2.75 124 2.76  30 2.79
                            88 2.91 110 3.01  25 3.04
  12  0.012  0.016  0.019-  41 2.47  35 2.60  13 2.61  17 2.64  30 2.65  99 2.68 124 2.77  16 2.78
                             7 2.89
  13  0.011  0.010  0.216-  14 2.58  12 2.61   6 2.62  31 2.63  36 2.65   7 2.71 115 2.72  18 2.85
                            37 2.87 122 3.06
  14  1.000  0.999  0.406-  15 2.52  42 2.55  32 2.56  13 2.58  18 2.59 100 2.59 122 2.61  37 2.62
                             6 3.04
  15  0.003  0.002  0.601-  14 2.52  19 2.57  16 2.59  33 2.60  43 2.60  38 2.62 116 2.63 101 2.64

  16  0.004  0.005  0.800-  20 2.54  40 2.59  15 2.59  39 2.62 117 2.66 102 2.69  34 2.70  12 2.78
                           124 3.03
  17  1.000  0.205  0.996-   1 2.54  20 2.56 102 2.59  45 2.61   7 2.63  40 2.64  12 2.64 103 2.65
                            10 2.93
  18  0.001  0.195  0.399-   6 2.54  14 2.59 118 2.60  19 2.62 105 2.63   7 2.69  22 2.70  13 2.85

  19  0.997  0.197  0.599- 106 2.57  15 2.57 100 2.58  20 2.58  23 2.61  47 2.61  18 2.62  42 2.65
                           118 3.02
  20  0.003  0.198  0.799-  16 2.54  17 2.56  19 2.58  24 2.58  44 2.61 101 2.61  43 2.63  10 2.67
                            47 2.92
  21  1.000  0.405  0.196-   1 2.50  26 2.54 108 2.59  50 2.60   7 2.60  45 2.62 103 2.62  22 2.64

  22  0.999  0.399  0.395-  27 2.61 109 2.61 104 2.62  46 2.62  51 2.63  23 2.63  21 2.64  18 2.70
                             7 2.95 118 3.02
  23  0.992  0.391  0.591- 105 2.52 110 2.57 118 2.58  19 2.61  22 2.63  28 2.67  24 2.73 123 2.80

  24  0.999  0.396  0.804-   1 2.57  20 2.58 111 2.60 106 2.63  29 2.65  47 2.69  48 2.69  23 2.73
                            10 2.94 123 3.11
  25  1.000  0.597  0.002-   1 2.56  26 2.59 111 2.61  48 2.62 112 2.64  52 2.66  29 2.69  30 2.70
                            11 3.04
  26  0.998  0.601  0.201-  21 2.54  27 2.57 113 2.58  25 2.59 107 2.60  31 2.61  49 2.63  53 2.64
                             1 3.00
  27  0.001  0.601  0.399-  26 2.57  50 2.59  28 2.59  22 2.61  32 2.62 121 2.62  54 2.64 108 2.65

  28  1.000  0.599  0.596-  27 2.59 109 2.61  29 2.63 114 2.63  33 2.64  55 2.65  51 2.66  23 2.67
                           121 3.01 123 3.11
  29  0.988  0.590  0.790- 110 2.48  11 2.60  34 2.62  28 2.63  24 2.65  25 2.69 123 2.72   8 2.77

  30  0.001  0.808  0.013-  36 2.51  31 2.52 115 2.55  12 2.65   8 2.66  25 2.70  11 2.79  34 2.83
                           124 3.06
  31  0.004  0.804  0.206-  30 2.52  32 2.56  52 2.57  26 2.61  13 2.63 122 2.63  37 2.65 112 2.67

  32  0.006  0.804  0.402-  53 2.55  31 2.56  14 2.56  33 2.59  38 2.61  27 2.62 116 2.68 113 2.70
                           122 3.05 121 3.06
  33  0.002  0.803  0.599-  34 2.58  32 2.59  15 2.60  54 2.61 117 2.61  39 2.61  28 2.64 121 2.65
                            55 2.92
  34  0.011  0.801  0.799-  55 2.45  33 2.58  35 2.62  29 2.62  16 2.70 124 2.74 114 2.75  30 2.83
                             8 2.94
  35  0.202  0.008  0.001-  40 2.54  61 2.57  12 2.60  36 2.62  39 2.62  34 2.62  56 2.64   8 2.68

  36  0.202  0.996  0.197-  30 2.51  62 2.56  57 2.57  52 2.58  41 2.61  35 2.62  13 2.65  37 2.65
                             8 2.90
  37  0.204  0.012  0.406-  63 2.60  38 2.61  14 2.62  58 2.62  31 2.65  36 2.65  53 2.70  62 2.83
                            42 2.86  13 2.87
  38  0.205  0.005  0.603-  42 2.56   3 2.56  59 2.58  39 2.59  54 2.60  37 2.61  32 2.61  15 2.62
                            63 2.89   2 2.98
  39  0.203  0.002  0.800-  55 2.49  43 2.57   2 2.58  60 2.59  38 2.59  33 2.61  35 2.62  16 2.62
                             3 2.95
  40  0.201  0.201  1.000-  35 2.54  65 2.56  16 2.59  44 2.59  43 2.61  60 2.64  17 2.64  41 2.69

  41  0.206  0.200  0.207-  12 2.47 119 2.55  61 2.60  36 2.61  45 2.68  40 2.69   7 2.71  62 2.92

  42  0.199  0.196  0.596-  14 2.55  38 2.56  66 2.61  43 2.64  19 2.65 118 2.66  63 2.67   9 2.85
                            37 2.86
  43  0.205  0.199  0.800-  47 2.50   3 2.56  39 2.57  15 2.60  64 2.61  40 2.61  20 2.63  42 2.64

  44  0.199  0.399  0.001-  48 2.52  47 2.57  40 2.59  45 2.59   1 2.60  20 2.61  68 2.62  64 2.63

  45  0.200  0.400  0.200-  44 2.59  17 2.61  49 2.61  46 2.61  21 2.62  65 2.62  69 2.63  41 2.68
                             7 2.97   1 2.98 119 2.99
  46  0.205  0.409  0.404-   4 2.50  50 2.59  45 2.61  22 2.62 118 2.64 119 2.66   7 2.69  51 2.89
                             9 2.92
  47  0.201  0.389  0.802-  43 2.50  44 2.57  66 2.58  19 2.61 118 2.67  67 2.68  24 2.69 123 2.77
                            20 2.92
  48  0.205  0.598  0.015-  49 2.43  44 2.52  72 2.57  25 2.62  67 2.65  24 2.69 123 2.75   8 2.76
                            68 2.87   1 2.92
  49  0.198  0.598  0.198-  48 2.43   1 2.54  50 2.57  45 2.61  52 2.61  26 2.63  68 2.64  73 2.64

  50  0.199  0.602  0.397-  51 2.53  49 2.57  69 2.59  27 2.59  46 2.59  53 2.60  21 2.60  74 2.61
                             4 2.99
  51  0.203  0.602  0.591-   4 2.52  50 2.53  54 2.61  22 2.63 118 2.66  28 2.66  75 2.67 123 2.80
                            46 2.89
  52  0.200  0.802  0.207-  53 2.55  31 2.57  36 2.58  58 2.58  49 2.61  72 2.65  25 2.66   8 2.67

  53  0.201  0.804  0.403-  32 2.55  52 2.55  54 2.57  59 2.58  50 2.60  73 2.62  26 2.64  37 2.70

  54  0.203  0.804  0.600-  55 2.53  53 2.57  74 2.60  38 2.60   2 2.60  51 2.61  33 2.61  27 2.64

  55  0.200  0.809  0.794-  34 2.45  39 2.49  54 2.53  56 2.61  75 2.62  28 2.65   8 2.76 123 2.76
                            33 2.92   2 2.95
  56  0.401  0.002  0.998-  82 2.58   2 2.59  60 2.59  71 2.61  76 2.61  55 2.61  35 2.64  57 2.66

  57  0.404  0.004  0.202- 120 2.57  36 2.57  61 2.60  72 2.63   8 2.64  77 2.65  58 2.65  56 2.66

  58  0.400  1.000  0.402-  62 2.56  73 2.58  52 2.58  83 2.60  37 2.62  59 2.62  78 2.63  57 2.65
                           120 3.05
  59  0.400  0.997  0.602-  63 2.50   2 2.55  74 2.56  38 2.58  53 2.58  79 2.59  84 2.61  58 2.62
                             3 3.00
  60  0.402  0.201  0.997-   3 2.54  81 2.57  86 2.58  56 2.59  64 2.59  39 2.59  61 2.62  40 2.64
                             2 2.97
  61  0.402  0.201  0.198-  35 2.57   5 2.58  82 2.60  57 2.60  41 2.60  65 2.62  60 2.62  62 2.71
                           119 2.98 120 3.00
  62  0.392  0.192  0.399-  58 2.56  36 2.56  87 2.57 120 2.68  61 2.71 119 2.72  63 2.72  37 2.83
                             9 2.87  41 2.92
  63  0.408  0.195  0.613-   3 2.48  59 2.50  88 2.53  83 2.56  37 2.60  42 2.67   9 2.68  62 2.72
                            84 2.80  38 2.89
  64  0.401  0.400  0.002-  65 2.54  90 2.55  67 2.59  60 2.59  85 2.59  66 2.60  43 2.61  44 2.63
                             3 3.04
  65  0.398  0.398  0.194-  64 2.54  40 2.56 119 2.57  86 2.59  68 2.61  61 2.62  45 2.62  91 2.65

  66  0.399  0.391  0.800-   3 2.56  47 2.58  88 2.58  64 2.60  42 2.61  89 2.62  70 2.69   9 2.72
                           118 3.11
  67  0.404  0.599  0.004-  89 2.55  95 2.57  68 2.58  64 2.59  48 2.65  47 2.68  71 2.72  70 2.75
                            90 2.91 123 3.02
  68  0.401  0.600  0.201-  90 2.58  67 2.58  69 2.60  96 2.60  65 2.61  44 2.62  72 2.63  49 2.64
                            48 2.87
  69  0.399  0.604  0.400-   4 2.56  50 2.59  97 2.59  73 2.59  68 2.60  45 2.63  91 2.64 119 2.64

  70  0.408  0.598  0.794-  93 2.36   4 2.58  94 2.65 118 2.65  66 2.69 123 2.72  67 2.75  75 2.76
                            98 2.88
  71  0.419  0.816  0.015-  77 2.42  94 2.53  72 2.59  56 2.61  75 2.71  67 2.72 123 2.75   8 2.77
                            95 2.88  76 2.89
  72  0.402  0.802  0.202-  48 2.57  78 2.57  95 2.59  73 2.59  71 2.59  57 2.63  68 2.63  52 2.65
                             8 3.04
  73  0.400  0.802  0.400-  79 2.57  58 2.58  72 2.59  69 2.59  74 2.61  96 2.61  53 2.62  49 2.64

  74  0.400  0.800  0.598-  59 2.56   4 2.57  97 2.59  75 2.59  80 2.60  54 2.60  73 2.61  50 2.61
                            98 2.91   2 3.04
  75  0.402  0.808  0.800-  98 2.50   2 2.56  76 2.57  74 2.59  55 2.62  51 2.67  71 2.71  70 2.76
                            80 2.91 123 3.07
  76  0.600  0.000  0.999-  99 2.55  75 2.57  80 2.58 104 2.59  81 2.59  94 2.61  56 2.61  77 2.62
                            71 2.89   2 3.02
  77  0.605  0.000  0.200-  71 2.42 105 2.58   6 2.58  95 2.61  76 2.62  78 2.65  57 2.65  82 2.65
                           120 3.04
  78  0.600  0.997  0.400-  72 2.57  96 2.57  79 2.60 100 2.60 106 2.61  58 2.63  77 2.65 120 2.66

  79  0.596  0.997  0.597-  97 2.55  73 2.57  83 2.58  59 2.59  78 2.60 101 2.63  80 2.63  10 2.70

  80  0.596  0.999  0.799-   2 2.56  76 2.58  98 2.58  74 2.60 102 2.62  84 2.62  79 2.63 103 2.64
                            75 2.91
  81  0.598  0.197  0.998-  82 2.55  84 2.55   2 2.56  60 2.57 103 2.57  76 2.59  85 2.60 108 2.61
                             3 2.97
  82  0.600  0.199  0.195-  81 2.55 104 2.56  56 2.58  86 2.59  61 2.60 109 2.61  77 2.65 120 2.66
                             5 3.03
  83  0.601  0.197  0.602-  63 2.56  79 2.58  58 2.60 111 2.61  87 2.61 106 2.63  84 2.65 120 2.66
                            10 2.99
  84  0.595  0.201  0.803-   3 2.51  81 2.55  88 2.59  59 2.61  80 2.62 107 2.63  83 2.65  10 2.68
                            63 2.80  85 2.92   2 2.93
  85  0.597  0.396  0.997-   3 2.57  64 2.59  81 2.60  88 2.61  89 2.61  86 2.62 113 2.63 107 2.64
                            84 2.92
  86  0.598  0.397  0.198-  60 2.58  82 2.59   5 2.59  65 2.59  85 2.62 121 2.63  90 2.63 108 2.64

  87  0.592  0.390  0.591-  62 2.57   5 2.60  83 2.61 110 2.64  11 2.65  92 2.66  88 2.67   9 2.68
                           120 2.93 119 3.00
  88  0.598  0.399  0.799-  63 2.53  66 2.58  84 2.59  85 2.61  93 2.61 111 2.62 112 2.63  87 2.67
                            11 2.91   3 3.03
  89  0.597  0.596  0.999-  67 2.55  90 2.58  93 2.58 112 2.61  85 2.61  66 2.62  94 2.67 122 2.67

  90  0.596  0.597  0.196-  64 2.55  89 2.58  68 2.58  91 2.61  95 2.61  86 2.63 113 2.64 116 2.66
                            67 2.91 121 3.04 122 3.06
  91  0.599  0.601  0.398-  96 2.61  90 2.61 117 2.61 121 2.63  69 2.64  92 2.64   5 2.65  65 2.65
                           119 2.96
  92  0.587  0.593  0.594- 119 2.51   4 2.53  91 2.64  87 2.66  93 2.66  97 2.68 114 2.72 124 2.78

  93  0.589  0.595  0.799-  70 2.36  89 2.58  88 2.61  92 2.66  11 2.68  98 2.68 115 2.75   9 2.80
                             4 3.05 124 3.19
  94  0.603  0.803  0.001-  71 2.53 115 2.57  76 2.61  98 2.63   6 2.64  70 2.65  95 2.65  89 2.67
                           122 3.01
  95  0.598  0.799  0.201-  67 2.57  72 2.59  96 2.59  77 2.61  90 2.61 100 2.63 122 2.63  94 2.65
                            71 2.88
  96  0.599  0.800  0.400-  97 2.57  78 2.57  95 2.59  68 2.60  73 2.61  91 2.61 116 2.61 101 2.62

  97  0.598  0.802  0.597-  79 2.55  96 2.57  74 2.59  69 2.59  98 2.64 102 2.65 117 2.65  92 2.68
                             4 3.02 124 3.08
  98  0.587  0.797  0.793-  75 2.50   4 2.55  80 2.58  94 2.63  97 2.64  93 2.68  99 2.71 124 2.77
                            70 2.88  74 2.91
  99  0.797  0.999  0.004-  76 2.55   6 2.55 103 2.61   7 2.62 115 2.63  12 2.68 102 2.69  98 2.71
                           124 3.05
 100  0.800  0.002  0.400-  19 2.58 105 2.58  14 2.59   6 2.60  78 2.60 101 2.62  95 2.63 116 2.63
                           122 3.00
 101  0.800  0.001  0.600- 117 2.54 106 2.59 102 2.61  20 2.61  96 2.62 100 2.62  79 2.63  15 2.64

 102  0.799  0.006  0.801-  10 2.56  17 2.59 101 2.61  80 2.62  97 2.65 124 2.66  16 2.69  99 2.69

 103  0.797  0.199  0.004- 104 2.57  81 2.57  99 2.61 107 2.62  21 2.62  80 2.64  17 2.65  10 2.66
                             7 2.91
 104  0.796  0.197  0.200-  82 2.56 105 2.56 103 2.57   6 2.57  76 2.59   7 2.60  22 2.62 108 2.63

 105  0.800  0.199  0.398-  23 2.52 104 2.56  77 2.58 100 2.58 106 2.61  18 2.63 109 2.63 120 2.63
                             6 2.96
 106  0.801  0.198  0.597-  19 2.57 101 2.59  78 2.61 105 2.61 110 2.62  83 2.63  24 2.63  10 2.67
                           120 3.03
 107  0.801  0.399  0.001- 112 2.57 108 2.57   1 2.60  26 2.60 111 2.61 103 2.62  84 2.63  85 2.64
                            10 2.97
 108  0.799  0.397  0.196- 107 2.57  21 2.59 113 2.60  81 2.61 109 2.61 104 2.63  86 2.64  27 2.65
                           121 3.03
 109  0.799  0.399  0.397-   5 2.60 108 2.61  28 2.61  22 2.61  82 2.61 121 2.62 105 2.63 110 2.64
                           120 3.02
 110  0.800  0.399  0.599-  29 2.48  23 2.57 114 2.60 120 2.61 106 2.62 109 2.64 111 2.64  87 2.64
                            11 3.01   5 3.03
 111  0.799  0.398  0.800-  11 2.54  10 2.57  24 2.60  83 2.61 107 2.61  25 2.61  88 2.62 110 2.64
                             1 3.04
 112  0.798  0.596  0.005- 113 2.52 107 2.57  89 2.61  88 2.63  11 2.64  25 2.64 115 2.66  31 2.67
                           122 3.02
 113  0.798  0.597  0.198- 112 2.52  26 2.58 121 2.58 108 2.60  85 2.63  90 2.64 122 2.67  32 2.70

 114  0.795  0.593  0.591-   5 2.54 121 2.58 110 2.60  28 2.63  92 2.72 117 2.73  11 2.75  34 2.75
                           124 3.11
 115  0.802  0.802  0.010- 122 2.52  30 2.55  94 2.57  99 2.63 112 2.66  13 2.72 124 2.74  93 2.75
                             6 2.97
 116  0.799  0.801  0.401- 117 2.49 122 2.61  96 2.61 121 2.63 100 2.63  15 2.63  90 2.66  32 2.68

 117  0.801  0.805  0.593- 116 2.49 101 2.54  33 2.61  91 2.61  97 2.65  16 2.66 124 2.71 114 2.73
                           121 3.02
 118  0.194  0.399  0.599-  23 2.58  18 2.60   9 2.61  46 2.64  70 2.65  51 2.66  42 2.66  47 2.67
                            22 3.02  19 3.02 123 3.03   4 3.09  66 3.11
 119  0.403  0.401  0.394-  92 2.51  41 2.55   5 2.57  65 2.57  69 2.64  46 2.66   9 2.67  62 2.72
                            91 2.96  61 2.98  45 2.99  87 3.00   4 3.07
 120  0.600  0.200  0.399-  57 2.57   5 2.59 110 2.61 105 2.63  78 2.66  83 2.66  82 2.66  62 2.68
                            87 2.93  61 3.00 109 3.02 106 3.03  77 3.04  58 3.05
 121  0.800  0.599  0.397- 114 2.58 113 2.58 109 2.62  27 2.62 116 2.63  86 2.63  91 2.63  33 2.65
                            28 3.01 117 3.02 108 3.03   5 3.03  90 3.04  32 3.06
 122  0.801  0.802  0.202- 115 2.52  14 2.61 116 2.61   6 2.62  95 2.63  31 2.63 113 2.67  89 2.67
                           100 3.00  94 3.01 112 3.02  32 3.05  13 3.06  90 3.06
 123  0.206  0.604  0.807-  70 2.72  29 2.72  48 2.75  71 2.75  55 2.76  47 2.77  23 2.80  51 2.80
                            67 3.02   8 3.02 118 3.03  75 3.07  24 3.11  28 3.11
 124  0.804  0.805  0.802- 102 2.66 117 2.71  34 2.74 115 2.74  11 2.76  12 2.77  98 2.77  92 2.78
                            16 3.03  99 3.05  30 3.06  97 3.08 114 3.11  93 3.19
 
  LATTYP: Found a triclinic cell.
 ALAT       =    36.9484934985
 B/A-ratio  =     0.3535186554
 C/A-ratio  =     0.5772698908
 COS(alpha) =     0.0002416466
 COS(beta)  =     0.2887267664
 COS(gamma) =     0.9428158987
  
  Lattice vectors:
  
 A1 = (  30.1710571640, -15.0866049150, -15.0762340640)
 A2 = (   7.5429280460,  -7.5406991980,  -7.5403885230)
 A3 = (  15.0799980970,  15.0841177710,  -0.0085907380)


Analysis of symmetry for initial positions (statically):
=====================================================================
 Subroutine PRICEL returns:
 Original cell was already a primitive cell.
 

 Routine SETGRP: Setting up the symmetry group for a 
 triclinic supercell.


 Subroutine GETGRP returns: Found  1 space group operations
 (whereof  1 operations were pure point group operations)
 out of a pool of  2 trial point group operations.


The static configuration has the point symmetry C_1 .


Analysis of symmetry for dynamics (positions and initial velocities):
=====================================================================
 Subroutine PRICEL returns:
 Original cell was already a primitive cell.
 

 Routine SETGRP: Setting up the symmetry group for a 
 triclinic supercell.


 Subroutine GETGRP returns: Found  1 space group operations
 (whereof  1 operations were pure point group operations)
 out of a pool of  2 trial point group operations.


The dynamic configuration has the point symmetry C_1 .


 Subroutine INISYM returns: Found  1 space group operations
 (whereof  1 operations are pure point group operations),
 and found     1 'primitive' translations


----------------------------------------------------------------------------------------

                                     Primitive cell                                     

  volume of cell :    1718.3948

  direct lattice vectors                    reciprocal lattice vectors
    -7.542928046  7.540699198  7.540388523     0.000002930  0.066329719  0.066289639
     7.547476001 -7.553831611  7.558065225     0.066270222  0.000080482  0.066212056
     7.537725071  7.548625092 -7.553522243     0.066313004  0.066294918  0.000037688

  length of vectors
    13.061981740 13.082397179 13.071141431     0.093776052  0.093679160  0.093767969

  position of ions in fractional coordinates (direct lattice)
     0.002669867  0.403680514  0.004802460
     0.401569390  0.003527105  0.800082016
     0.401083774  0.197218901  0.801389154
     0.396524907  0.600996551  0.594485969
     0.599408371  0.397862946  0.397091052
     0.804687126  0.004326534  0.203271235
     0.997389545  0.205813165  0.196609665
     0.198808860  0.802690472  0.002477385
     0.380301449  0.377407902  0.581423353
     0.801977492  0.204050673  0.803891214
     0.792134338  0.589594626  0.799148412
     0.012080949  0.015842133  0.018567620
     0.011478318  0.010405262  0.216365899
     0.999527441  0.998625005  0.405841714
     0.002659052  0.002465087  0.600722607
     0.003868924  0.004585420  0.799853353
     0.999614823  0.205403784  0.996177557
     0.001021851  0.194823898  0.399300721
     0.997396422  0.196549113  0.599335965
     0.002820937  0.198427131  0.799006869
     0.999827127  0.405466745  0.195925891
     0.998696894  0.399462907  0.395463098
     0.992083621  0.391280478  0.591496149
     0.998945239  0.396337491  0.804287010
     0.999507548  0.596928273  0.001669164
     0.998167343  0.600795762  0.200686923
     0.001395651  0.600907971  0.398589598
     0.999607607  0.598890892  0.595806497
     0.987662085  0.590030545  0.789542283
     0.000520987  0.807578765  0.013483965
     0.003869450  0.803670062  0.205822906
     0.005743429  0.803802372  0.402304825
     0.002276025  0.803071717  0.599293997
     0.011467477  0.800520510  0.798651975
     0.201781357  0.007640082  0.000959032
     0.202357542  0.996007198  0.197040080
     0.204248133  0.012423724  0.405666323
     0.204930926  0.004649922  0.602586856
     0.203412213  0.001952115  0.799584767
     0.201302023  0.201202481  0.999619343
     0.205907963  0.200002099  0.206811458
     0.198816431  0.195679371  0.595543435
     0.204838483  0.198658184  0.800092071
     0.199169140  0.398741964  0.001100211
     0.199605214  0.400159198  0.199679055
     0.205220501  0.408970951  0.404275163
     0.201429106  0.389395135  0.802214828
     0.204585534  0.597640528  0.014818320
     0.197711072  0.598404626  0.198368317
     0.199342496  0.602475053  0.396622333
     0.203095785  0.602289913  0.591203339
     0.200285187  0.801588187  0.206668343
     0.200750708  0.803616264  0.402527772
     0.202683977  0.804193421  0.600243451
     0.199610585  0.808733731  0.794053881
     0.401291749  0.002411115  0.997780747
     0.403543541  0.003532475  0.202259782
     0.399516367  0.999882972  0.402455176
     0.399528691  0.997396910  0.602356399
     0.402178896  0.200618290  0.997426235
     0.402416690  0.200702806  0.198298626
     0.392221096  0.191996295  0.398925147
     0.408109036  0.194699524  0.613102371
     0.401419757  0.399926798  0.001982354
     0.397909481  0.397738172  0.194329624
     0.398674096  0.391474605  0.799722034
     0.404324570  0.599419623  0.004496837
     0.400788933  0.600001641  0.200777301
     0.398896546  0.603519713  0.400002303
     0.407670828  0.597810751  0.794423963
     0.419166814  0.815618233  0.015214946
     0.401571517  0.802144534  0.202410996
     0.399703430  0.801694974  0.399529116
     0.399893085  0.800225470  0.598416922
     0.401800293  0.808150145  0.799823132
     0.600439402  0.000143563  0.998518465
     0.604556467  0.000304380  0.200196825
     0.599515534  0.997338039  0.399969168
     0.596200109  0.996584647  0.597348109
     0.595759234  0.999477815  0.799457417
     0.597822551  0.197162693  0.998343892
     0.599809509  0.199465977  0.194864535
     0.600667678  0.197012379  0.601576315
     0.595166938  0.200639114  0.803370039
     0.596869331  0.395575947  0.997204380
     0.597651046  0.397399711  0.198134589
     0.592432824  0.390063875  0.590703480
     0.598314731  0.398587935  0.799323673
     0.596563223  0.595913064  0.999010830
     0.595751038  0.597148769  0.196390979
     0.599258413  0.600599906  0.398476952
     0.586866041  0.592549261  0.593583203
     0.588969086  0.594653632  0.798829537
     0.603382600  0.802754204  0.000913199
     0.598179710  0.799291128  0.201048179
     0.598929622  0.800373119  0.399954377
     0.598290839  0.802195535  0.596838324
     0.587150525  0.797235206  0.793065616
     0.797028902  0.999202721  0.003962614
     0.800158410  0.001802268  0.399578746
     0.799693935  0.000645149  0.599758484
     0.798632385  0.006313510  0.800829891
     0.797187716  0.198743402  0.003936005
     0.796391790  0.196863976  0.199684894
     0.800315391  0.198600921  0.397664508
     0.800582591  0.198064266  0.597248049
     0.801185906  0.399384780  0.001179480
     0.798726885  0.397174159  0.196379806
     0.798874275  0.399012127  0.396613924
     0.800299948  0.399022690  0.598924835
     0.799227689  0.398189006  0.800193020
     0.798167942  0.596106132  0.004987794
     0.798198710  0.596510675  0.198108238
     0.794645737  0.593264578  0.590897839
     0.802407714  0.802056560  0.009540147
     0.799104843  0.801036957  0.400541688
     0.800796791  0.804633109  0.592825216
     0.194215068  0.398849305  0.598930670
     0.402624829  0.400803198  0.393536188
     0.599750166  0.200393606  0.398855940
     0.799757135  0.599450636  0.397242033
     0.800828300  0.802459464  0.201984908
     0.206172459  0.604395916  0.807349737
     0.804474307  0.804939412  0.801566900

  ion indices of the primitive-cell ions
   primitive index   ion index
                 1           1
                 2           2
                 3           3
                 4           4
                 5           5
                 6           6
                 7           7
                 8           8
                 9           9
                10          10
                11          11
                12          12
                13          13
                14          14
                15          15
                16          16
                17          17
                18          18
                19          19
                20          20
                21          21
                22          22
                23          23
                24          24
                25          25
                26          26
                27          27
                28          28
                29          29
                30          30
                31          31
                32          32
                33          33
                34          34
                35          35
                36          36
                37          37
                38          38
                39          39
                40          40
                41          41
                42          42
                43          43
                44          44
                45          45
                46          46
                47          47
                48          48
                49          49
                50          50
                51          51
                52          52
                53          53
                54          54
                55          55
                56          56
                57          57
                58          58
                59          59
                60          60
                61          61
                62          62
                63          63
                64          64
                65          65
                66          66
                67          67
                68          68
                69          69
                70          70
                71          71
                72          72
                73          73
                74          74
                75          75
                76          76
                77          77
                78          78
                79          79
                80          80
                81          81
                82          82
                83          83
                84          84
                85          85
                86          86
                87          87
                88          88
                89          89
                90          90
                91          91
                92          92
                93          93
                94          94
                95          95
                96          96
                97          97
                98          98
                99          99
               100         100
               101         101
               102         102
               103         103
               104         104
               105         105
               106         106
               107         107
               108         108
               109         109
               110         110
               111         111
               112         112
               113         113
               114         114
               115         115
               116         116
               117         117
               118         118
               119         119
               120         120
               121         121
               122         122
               123         123
               124         124

----------------------------------------------------------------------------------------

 
 
 KPOINTS: KPOINTS generated by db_to_vasp         

Automatic generation of k-mesh.
 Grid dimensions read from file:
 generate k-points for:    4    4    4

 Generating k-lattice:

  Cartesian coordinates                     Fractional coordinates (reciprocal lattice)
     0.000000732  0.016582430  0.016572410     0.250000000 -0.000000000 -0.000000000
     0.016567555  0.000020120  0.016553014    -0.000000000  0.250000000 -0.000000000
     0.016578251  0.016573730  0.000009422     0.000000000 -0.000000000  0.250000000

  Length of vectors
     0.023444013  0.023419790  0.023441992

  Shift w.r.t. Gamma in fractional coordinates (k-lattice)
     0.000000000  0.000000000  0.000000000

 
 Subroutine IBZKPT returns following result:
 ===========================================
 
 Found     36 irreducible k-points:
 
 Following reciprocal coordinates:
            Coordinates               Weight
  0.000000  0.000000  0.000000      1.000000
  0.250000  0.000000  0.000000      2.000000
  0.500000  0.000000  0.000000      1.000000
  0.000000  0.250000  0.000000      2.000000
  0.250000  0.250000  0.000000      2.000000
  0.500000  0.250000  0.000000      2.000000
 -0.250000  0.250000  0.000000      2.000000
  0.000000  0.500000  0.000000      1.000000
  0.250000  0.500000  0.000000      2.000000
  0.500000  0.500000  0.000000      1.000000
  0.000000  0.000000  0.250000      2.000000
  0.250000  0.000000  0.250000      2.000000
  0.500000  0.000000  0.250000      2.000000
 -0.250000  0.000000  0.250000      2.000000
  0.000000  0.250000  0.250000      2.000000
  0.250000  0.250000  0.250000      2.000000
  0.500000  0.250000  0.250000      2.000000
 -0.250000  0.250000  0.250000      2.000000
  0.000000  0.500000  0.250000      2.000000
  0.250000  0.500000  0.250000      2.000000
  0.500000  0.500000  0.250000      2.000000
 -0.250000  0.500000  0.250000      2.000000
  0.000000 -0.250000  0.250000      2.000000
  0.250000 -0.250000  0.250000      2.000000
  0.500000 -0.250000  0.250000      2.000000
 -0.250000 -0.250000  0.250000      2.000000
  0.000000  0.000000  0.500000      1.000000
  0.250000  0.000000  0.500000      2.000000
  0.500000  0.000000  0.500000      1.000000
  0.000000  0.250000  0.500000      2.000000
  0.250000  0.250000  0.500000      2.000000
  0.500000  0.250000  0.500000      2.000000
 -0.250000  0.250000  0.500000      2.000000
  0.000000  0.500000  0.500000      1.000000
  0.250000  0.500000  0.500000      2.000000
  0.500000  0.500000  0.500000      1.000000
 
 Following cartesian coordinates:
            Coordinates               Weight
  0.000000  0.000000  0.000000      1.000000
  0.000001  0.016582  0.016572      2.000000
  0.000001  0.033165  0.033145      1.000000
  0.016568  0.000020  0.016553      2.000000
  0.016568  0.016603  0.033125      2.000000
  0.016569  0.033185  0.049698      2.000000
  0.016567 -0.016562 -0.000019      2.000000
  0.033135  0.000040  0.033106      1.000000
  0.033136  0.016623  0.049678      2.000000
  0.033137  0.033205  0.066251      1.000000
  0.016578  0.016574  0.000009      2.000000
  0.016579  0.033156  0.016582      2.000000
  0.016580  0.049739  0.033154      2.000000
  0.016578 -0.000009 -0.016563      2.000000
  0.033146  0.016594  0.016562      2.000000
  0.033147  0.033176  0.033135      2.000000
  0.033147  0.049759  0.049707      2.000000
  0.033145  0.000011 -0.000010      2.000000
  0.049713  0.016614  0.033115      2.000000
  0.049714  0.033196  0.049688      2.000000
  0.049715  0.049779  0.066260      2.000000
  0.049713  0.000032  0.016543      2.000000
  0.000011  0.016554 -0.016544      2.000000
  0.000011  0.033136  0.000029      2.000000
  0.000012  0.049718  0.016601      2.000000
  0.000010 -0.000029 -0.033116      2.000000
  0.033157  0.033147  0.000019      1.000000
  0.033157  0.049730  0.016591      2.000000
  0.033158  0.066312  0.033164      1.000000
  0.049724  0.033168  0.016572      2.000000
  0.049725  0.049750  0.033144      2.000000
  0.049726  0.066332  0.049717      2.000000
  0.049723  0.016585 -0.000001      2.000000
  0.066292  0.033188  0.033125      1.000000
  0.066292  0.049770  0.049697      2.000000
  0.066293  0.066353  0.066270      1.000000
 


--------------------------------------------------------------------------------------------------------




 Dimension of arrays:
   k-points           NKPTS =     36   k-points in BZ     NKDIM =     36   number of bands    NBANDS=    832
   number of dos      NEDOS =    301   number of ions     NIONS =    124
   non local maximal  LDIM  =      6   non local SUM 2l+1 LMDIM =     18
   total plane-waves  NPLWV = 941192
   max r-space proj   IRMAX =      1   max aug-charges    IRDMAX=  31460
   dimension x,y,z NGX =    98 NGY =   98 NGZ =   98
   dimension x,y,z NGXF=   196 NGYF=  196 NGZF=  196
   support grid    NGXF=   196 NGYF=  196 NGZF=  196
   ions per type =               6   5 106   5   2
   NGX,Y,Z   is equivalent  to a cutoff of  12.47, 12.45, 12.46 a.u.
   NGXF,Y,Z  is equivalent  to a cutoff of  24.95, 24.91, 24.93 a.u.

 SYSTEM =  unknown system                          
 POSCAR =  Cr Ti V  W  Zr                          

 Startparameter for this run:
   NWRITE =      2    write-flag & timer
   PREC   = accura    normal or accurate (medium, high low for compatibility)
   ISTART =      0    job   : 0-new  1-cont  2-samecut
   ICHARG =      2    charge: 1-file 2-atom 10-const
   ISPIN  =      1    spin polarized calculation?
   LNONCOLLINEAR =      F non collinear calculations
   LSORBIT =      F    spin-orbit coupling
   INIWAV =      1    electr: 0-lowe 1-rand  2-diag
   LASPH  =      F    aspherical Exc in radial PAW
 Electronic Relaxation 1
   ENCUT  =  520.0 eV  38.22 Ry    6.18 a.u.  24.29 24.32 24.30*2*pi/ulx,y,z
   ENINI  =  520.0     initial cutoff
   ENAUG  =  598.5 eV  augmentation charge cutoff
   NELM   =    100;   NELMIN=  2; NELMDL= -5     # of ELM steps 
   EDIFF  = 0.1E-05   stopping-criterion for ELM
   LREAL  =      F    real-space projection
   NLSPLINE    = F    spline interpolate recip. space projectors
   LCOMPAT=      F    compatible to vasp.4.4
   GGA_COMPAT  = T    GGA compatible to vasp.4.4-vasp.4.6
   LMAXPAW     = -100 max onsite density
   LMAXMIX     =    2 max onsite mixed and CHGCAR
   VOSKOWN=      0    Vosko Wilk Nusair interpolation
   ROPT   =    0.00000   0.00000   0.00000   0.00000
   ROPT   =    0.00000
 Ionic relaxation
   EDIFFG = -.1E-01   stopping-criterion for IOM
   NSW    =     -1    number of steps for IOM
   NBLOCK =      1;   KBLOCK =      1    inner block; outer block 
   IBRION =      2    ionic relax: 0-MD 1-quasi-New 2-CG
   NFREE  =      1    steps in history (QN), initial steepest desc. (CG)
   ISIF   =      2    stress and relaxation
   IWAVPR =     11    prediction:  0-non 1-charg 2-wave 3-comb
   ISYM   =      2    0-nonsym 1-usesym 2-fastsym
   LCORR  =      T    Harris-Foulkes like correction to forces

   POTIM  = 0.2000    time-step for ionic-motion
   TEIN   =    0.0    initial temperature
   TEBEG  =    0.0;   TEEND  =   0.0 temperature during run
   SMASS  =  -3.00    Nose mass-parameter (am)
   estimated Nose-frequenzy (Omega)   =  0.10E-29 period in steps = 0.31E+47 mass=  -0.390E-26a.u.
   SCALEE = 1.0000    scale energy and forces
   NPACO  =    256;   APACO  = 10.0  distance and # of slots for P.C.
   PSTRESS=    0.0 pullay stress

  Mass of Ions in am
   POMASS =  52.00 47.88 50.94183.85 91.22
  Ionic Valenz
   ZVAL   =  12.00 10.00 11.00 14.00 12.00
  Atomic Wigner-Seitz radii
   RWIGS  =  -1.00 -1.00 -1.00 -1.00 -1.00
  virtual crystal weights 
   VCA    =   1.00  1.00  1.00  1.00  1.00
   NELECT =    1382.0000    total number of electrons
   NUPDOWN=      -1.0000    fix difference up-down

 DOS related values:
   EMIN   =  10.00;   EMAX   =-10.00  energy-range for DOS
   EFERMI =   0.00;   METHOD = LEGACY      
   ISMEAR =     1;   SIGMA  =   0.20  broadening in eV -4-tet -1-fermi 0-gaus

 Electronic relaxation 2 (details)
   IALGO  =     38    algorithm
   LDIAG  =      T    sub-space diagonalisation (order eigenvalues)
   LSUBROT=      F    optimize rotation matrix (better conditioning)
   TURBO    =      0    0=normal 1=particle mesh
   IRESTART =      0    0=no restart 2=restart with 2 vectors
   NREBOOT  =      0    no. of reboots
   NMIN     =      0    reboot dimension
   EREF     =   0.00    reference energy to select bands
   IMIX   =      4    mixing-type and parameters
     AMIX     =   0.40;   BMIX     =  1.00
     AMIX_MAG =   1.60;   BMIX_MAG =  1.00
     AMIN     =   0.10
     WC   =   100.;   INIMIX=   1;  MIXPRE=   1;  MAXMIX= -45

 Intra band minimization:
   WEIMIN = 0.0010     energy-eigenvalue tresh-hold
   EBREAK =  0.30E-09  absolut break condition
   DEPER  =   0.30     relativ break condition  

   TIME   =   0.40     timestep for ELM

  volume/ion in A,a.u.               =      13.86        93.52
  Fermi-wavevector in a.u.,A,eV,Ry     =   1.522427  2.876970 31.535373  2.317785
  Thomas-Fermi vector in A             =   2.631008
 
 Write flags
   LWAVE        =      F    write WAVECAR
   LDOWNSAMPLE  =      F    k-point downsampling of WAVECAR
   LCHARG       =      T    write CHGCAR
   LVTOT        =      F    write LOCPOT, total local potential
   LVHAR        =      F    write LOCPOT, Hartree potential only
   LELF         =      F    write electronic localiz. function (ELF)
   LORBIT       =     11    0 simple, 1 ext, 2 COOP (PROOUT), +10 PAW based schemes


 Dipole corrections
   LMONO  =      F    monopole corrections only (constant potential shift)
   LDIPOL =      F    correct potential (dipole corrections)
   IDIPOL =      0    1-x, 2-y, 3-z, 4-all directions 
   EPSILON=  1.0000000 bulk dielectric constant

 Exchange correlation treatment:
   GGA     =    PE    GGA type
   LEXCH   =     8    internal setting for exchange type
   LIBXC   =     F    Libxc                    
   VOSKOWN =     0    Vosko Wilk Nusair interpolation
   LHFCALC =     F    Hartree Fock is set to
   LHFONE  =     F    Hartree Fock one center treatment
   AEXX    =    0.0000 exact exchange contribution

 Linear response parameters
   LEPSILON=     F    determine dielectric tensor
   LRPA    =     F    only Hartree local field effects (RPA)
   LNABLA  =     F    use nabla operator in PAW spheres
   LVEL    =     F    velocity operator in full k-point grid
   CSHIFT  =0.1000    complex shift for real part using Kramers Kronig
   OMEGAMAX=  -1.0    maximum frequency
   DEG_THRESHOLD= 0.2000000E-02 threshold for treating states as degnerate
   RTIME   =   -0.100 relaxation time in fs
  (WPLASMAI=    0.000 imaginary part of plasma frequency in eV, 0.658/RTIME)
   DFIELD  = 0.0000000 0.0000000 0.0000000 field for delta impulse in time
 
  Optional k-point grid parameters
   LKPOINTS_OPT  =     F    use optional k-point grid
   KPOINTS_OPT_MODE=     1    mode for optional k-point grid
 
 Orbital magnetization related:
   ORBITALMAG=     F  switch on orbital magnetization
   LCHIMAG   =     F  perturbation theory with respect to B field
   DQ        =  0.001000  dq finite difference perturbation B field
   LLRAUG    =     F  two centre corrections for induced B field
   LBONE     =     F  B-component reconstruction in AE one-centre
   LVGVCALC  =     T  calculate vGv susceptibility
   LVGVAPPL  =     F  apply vGv susceptibility instead of pGv for G=0

 Random number generation:
   RANDOM_GENERATOR = DEFAULT
   PCG_SEED         = not used


--------------------------------------------------------------------------------------------------------


 conjugate gradient relaxation of ions
 charge density and potential will be updated during run
 non-spin polarized calculation
 Variant of blocked Davidson
 Davidson routine will perform the subspace rotation
 perform sub-space diagonalisation
    after iterative eigenvector-optimisation
 modified Broyden-mixing scheme, WC =      100.0
 initial mixing is a Kerker type mixing with AMIX =  0.4000 and BMIX =      1.0000
 Hartree-type preconditioning will be used
 using additional bands           141
 reciprocal scheme for non local part
 use partial core corrections
 calculate Harris-corrections to forces 
   (improved forces if not selfconsistent)
 use gradient corrections 
 use of overlap-Matrix (Vanderbilt PP)
 Methfessel and Paxton  Order N= 1 SIGMA  =   0.20


--------------------------------------------------------------------------------------------------------


  energy-cutoff  :      520.00
  volume of cell :     1718.39
      direct lattice vectors                 reciprocal lattice vectors
    -7.542928046  7.540699198  7.540388523     0.000002930  0.066329719  0.066289639
     7.547476001 -7.553831611  7.558065225     0.066270222  0.000080482  0.066212056
     7.537725071  7.548625092 -7.553522243     0.066313004  0.066294918  0.000037688

  length of vectors
    13.061981740 13.082397179 13.071141431     0.093776052  0.093679160  0.093767969


 
 k-points in units of 2pi/SCALE and weight: KPOINTS generated by db_to_vasp         
   0.00000000  0.00000000  0.00000000       0.016
   0.00000073  0.01658243  0.01657241       0.031
   0.00000146  0.03316486  0.03314482       0.016
   0.01656756  0.00002012  0.01655301       0.031
   0.01656829  0.01660255  0.03312542       0.031
   0.01656902  0.03318498  0.04969783       0.031
   0.01656682 -0.01656231 -0.00001940       0.031
   0.03313511  0.00004024  0.03310603       0.016
   0.03313584  0.01662267  0.04967844       0.031
   0.03313658  0.03320510  0.06625085       0.016
   0.01657825  0.01657373  0.00000942       0.031
   0.01657898  0.03315616  0.01658183       0.031
   0.01657972  0.04973859  0.03315424       0.031
   0.01657752 -0.00000870 -0.01656299       0.031
   0.03314581  0.01659385  0.01656244       0.031
   0.03314654  0.03317628  0.03313485       0.031
   0.03314727  0.04975871  0.04970726       0.031
   0.03314507  0.00001142 -0.00000997       0.031
   0.04971336  0.01661397  0.03311545       0.031
   0.04971409  0.03319640  0.04968786       0.031
   0.04971483  0.04977883  0.06626027       0.031
   0.04971263  0.00003154  0.01654304       0.031
   0.00001070  0.01655361 -0.01654359       0.031
   0.00001143  0.03313604  0.00002882       0.031
   0.00001216  0.04971847  0.01660123       0.031
   0.00000996 -0.00002882 -0.03311600       0.031
   0.03315650  0.03314746  0.00001884       0.016
   0.03315723  0.04972989  0.01659125       0.031
   0.03315797  0.06631232  0.03316366       0.016
   0.04972406  0.03316758  0.01657186       0.031
   0.04972479  0.04975001  0.03314427       0.031
   0.04972552  0.06633244  0.04971668       0.031
   0.04972332  0.01658515 -0.00000055       0.031
   0.06629161  0.03318770  0.03312487       0.016
   0.06629235  0.04977013  0.04969728       0.031
   0.06629308  0.06635256  0.06626969       0.016
 
 k-points in reciprocal lattice and weights: KPOINTS generated by db_to_vasp         
   0.00000000  0.00000000  0.00000000       0.016
   0.25000000  0.00000000  0.00000000       0.031
   0.50000000  0.00000000  0.00000000       0.016
   0.00000000  0.25000000  0.00000000       0.031
   0.25000000  0.25000000  0.00000000       0.031
   0.50000000  0.25000000  0.00000000       0.031
  -0.25000000  0.25000000  0.00000000       0.031
   0.00000000  0.50000000  0.00000000       0.016
   0.25000000  0.50000000  0.00000000       0.031
   0.50000000  0.50000000  0.00000000       0.016
   0.00000000  0.00000000  0.25000000       0.031
   0.25000000  0.00000000  0.25000000       0.031
   0.50000000  0.00000000  0.25000000       0.031
  -0.25000000  0.00000000  0.25000000       0.031
   0.00000000  0.25000000  0.25000000       0.031
   0.25000000  0.25000000  0.25000000       0.031
   0.50000000  0.25000000  0.25000000       0.031
  -0.25000000  0.25000000  0.25000000       0.031
   0.00000000  0.50000000  0.25000000       0.031
   0.25000000  0.50000000  0.25000000       0.031
   0.50000000  0.50000000  0.25000000       0.031
  -0.25000000  0.50000000  0.25000000       0.031
   0.00000000 -0.25000000  0.25000000       0.031
   0.25000000 -0.25000000  0.25000000       0.031
   0.50000000 -0.25000000  0.25000000       0.031
  -0.25000000 -0.25000000  0.25000000       0.031
   0.00000000  0.00000000  0.50000000       0.016
   0.25000000  0.00000000  0.50000000       0.031
   0.50000000  0.00000000  0.50000000       0.016
   0.00000000  0.25000000  0.50000000       0.031
   0.25000000  0.25000000  0.50000000       0.031
   0.50000000  0.25000000  0.50000000       0.031
  -0.25000000  0.25000000  0.50000000       0.031
   0.00000000  0.50000000  0.50000000       0.016
   0.25000000  0.50000000  0.50000000       0.031
   0.50000000  0.50000000  0.50000000       0.016
 
 position of ions in fractional coordinates (direct lattice) 
   0.00266987  0.40368051  0.00480246
   0.40156939  0.00352710  0.80008202
   0.40108377  0.19721890  0.80138915
   0.39652491  0.60099655  0.59448597
   0.59940837  0.39786295  0.39709105
   0.80468713  0.00432653  0.20327123
   0.99738954  0.20581316  0.19660966
   0.19880886  0.80269047  0.00247739
   0.38030145  0.37740790  0.58142335
   0.80197749  0.20405067  0.80389121
   0.79213434  0.58959463  0.79914841
   0.01208095  0.01584213  0.01856762
   0.01147832  0.01040526  0.21636590
   0.99952744  0.99862500  0.40584171
   0.00265905  0.00246509  0.60072261
   0.00386892  0.00458542  0.79985335
   0.99961482  0.20540378  0.99617756
   0.00102185  0.19482390  0.39930072
   0.99739642  0.19654911  0.59933597
   0.00282094  0.19842713  0.79900687
   0.99982713  0.40546675  0.19592589
   0.99869689  0.39946291  0.39546310
   0.99208362  0.39128048  0.59149615
   0.99894524  0.39633749  0.80428701
   0.99950755  0.59692827  0.00166916
   0.99816734  0.60079576  0.20068692
   0.00139565  0.60090797  0.39858960
   0.99960761  0.59889089  0.59580650
   0.98766209  0.59003055  0.78954228
   0.00052099  0.80757877  0.01348396
   0.00386945  0.80367006  0.20582291
   0.00574343  0.80380237  0.40230482
   0.00227603  0.80307172  0.59929400
   0.01146748  0.80052051  0.79865198
   0.20178136  0.00764008  0.00095903
   0.20235754  0.99600720  0.19704008
   0.20424813  0.01242372  0.40566632
   0.20493093  0.00464992  0.60258686
   0.20341221  0.00195211  0.79958477
   0.20130202  0.20120248  0.99961934
   0.20590796  0.20000210  0.20681146
   0.19881643  0.19567937  0.59554343
   0.20483848  0.19865818  0.80009207
   0.19916914  0.39874196  0.00110021
   0.19960521  0.40015920  0.19967906
   0.20522050  0.40897095  0.40427516
   0.20142911  0.38939513  0.80221483
   0.20458553  0.59764053  0.01481832
   0.19771107  0.59840463  0.19836832
   0.19934250  0.60247505  0.39662233
   0.20309578  0.60228991  0.59120334
   0.20028519  0.80158819  0.20666834
   0.20075071  0.80361626  0.40252777
   0.20268398  0.80419342  0.60024345
   0.19961058  0.80873373  0.79405388
   0.40129175  0.00241112  0.99778075
   0.40354354  0.00353247  0.20225978
   0.39951637  0.99988297  0.40245518
   0.39952869  0.99739691  0.60235640
   0.40217890  0.20061829  0.99742624
   0.40241669  0.20070281  0.19829863
   0.39222110  0.19199629  0.39892515
   0.40810904  0.19469952  0.61310237
   0.40141976  0.39992680  0.00198235
   0.39790948  0.39773817  0.19432962
   0.39867410  0.39147461  0.79972203
   0.40432457  0.59941962  0.00449684
   0.40078893  0.60000164  0.20077730
   0.39889655  0.60351971  0.40000230
   0.40767083  0.59781075  0.79442396
   0.41916681  0.81561823  0.01521495
   0.40157152  0.80214453  0.20241100
   0.39970343  0.80169497  0.39952912
   0.39989308  0.80022547  0.59841692
   0.40180029  0.80815014  0.79982313
   0.60043940  0.00014356  0.99851846
   0.60455647  0.00030438  0.20019682
   0.59951553  0.99733804  0.39996917
   0.59620011  0.99658465  0.59734811
   0.59575923  0.99947781  0.79945742
   0.59782255  0.19716269  0.99834389
   0.59980951  0.19946598  0.19486454
   0.60066768  0.19701238  0.60157631
   0.59516694  0.20063911  0.80337004
[...]
   -.203E+03 -.122E+03 0.274E+02   0.203E+03 0.122E+03 -.277E+02   -.390E+00 -.284E+00 0.298E+00   0.154E-02 0.624E-02 0.202E-02
   0.143E+03 0.724E+02 -.118E+03   -.143E+03 -.720E+02 0.118E+03   0.210E+00 -.337E+00 0.288E+00   -.204E-02 -.351E-03 -.654E-02
   -.434E+02 -.783E+01 -.135E+02   0.436E+02 0.772E+01 0.136E+02   -.164E+00 0.110E+00 -.124E+00   -.659E-03 -.250E-02 0.269E-02
   -.946E+02 -.120E+03 0.857E+02   0.939E+02 0.120E+03 -.853E+02   0.644E+00 0.612E+00 -.404E+00   -.911E-03 -.687E-03 0.283E-02
   0.107E+03 -.340E+02 -.134E+02   -.106E+03 0.338E+02 0.128E+02   -.364E+00 0.229E+00 0.518E+00   0.972E-02 0.392E-02 -.250E-03
   -.536E+02 -.185E+02 0.255E+03   0.532E+02 0.185E+02 -.254E+03   0.393E+00 0.293E-01 -.409E+00   0.266E-02 -.303E-02 0.236E-02
   -.244E+02 -.286E+02 0.610E+02   0.245E+02 0.285E+02 -.610E+02   -.358E-01 0.160E-01 -.198E-01   -.526E-02 0.510E-02 -.328E-02
   -.502E+02 -.506E+02 -.182E+02   0.503E+02 0.506E+02 0.185E+02   -.742E-01 0.743E-01 -.232E+00   0.151E-02 -.463E-03 0.480E-02
   0.492E+02 0.863E+01 -.506E+02   -.492E+02 -.861E+01 0.503E+02   -.344E-01 -.185E-01 0.335E+00   -.898E-03 -.107E-02 -.445E-02
   -.732E+02 0.698E+01 0.213E+02   0.732E+02 -.718E+01 -.213E+02   0.121E-01 0.203E+00 0.229E-02   0.217E-02 0.198E-02 0.237E-03
   0.283E+02 -.879E+02 0.277E+02   -.278E+02 0.876E+02 -.277E+02   -.427E+00 0.267E+00 -.524E-01   -.665E-03 0.220E-02 -.259E-02
 -----------------------------------------------------------------------------------------------
   0.220E-01 -.144E+00 0.775E+00   -.131E-11 0.782E-12 -.185E-11   -.189E-01 0.157E+00 -.778E+00   -.658E-03 -.101E-01 0.912E-04
 
 
 POSITION                                       TOTAL-FORCE (eV/Angst)
 -----------------------------------------------------------------------------------
      3.06283     -2.99295      3.03490        -0.000082      0.000112      0.000043
      3.02841      9.04099     -2.98879        -0.000168     -0.000091     -0.000040
      4.50381      7.58408     -1.53839         0.000128      0.000112     -0.000086
      6.02612      2.93780      3.04186        -0.000164     -0.000620     -0.000721
      1.47473      4.51206      4.52741         0.000236      0.000273     -0.000611
     -4.50484      7.56964      4.56494        -0.000033     -0.000288      0.000403
     -4.48788      7.45047      7.59116        -0.000129      0.000874     -0.000016
      4.57736     -4.54553      7.54717        -0.000171      0.000821     -0.000049
      4.36250      4.40581      1.32830         0.000228     -0.000470     -0.001477
      1.55032     10.57438      1.51724        -0.000360      0.000393      0.000200
      4.49870      7.55202      4.39281         0.000091     -0.000463     -0.000553
      0.16840      0.11159      0.07058        -0.001340     -0.000097      0.000958
      1.62286      1.64122     -1.46913        -0.000509     -0.000272     -0.000104
      3.05686      3.05724     12.01896        -0.000416     -0.000079      0.000597
      4.52663      4.53606     -4.49889        -0.000076     -0.000185     -0.000184
      6.03450      6.03233     -5.97788         0.000218      0.000691     -0.000255
      1.51917     13.50598      1.56529        -0.000064      0.000168      0.000040
      4.47254      1.55021     -1.53593         0.000362      0.000433      0.000222
     -1.52221     10.56053      4.47919         0.000066     -0.000476     -0.000219
      7.49904      4.55379     -4.51432         0.000141     -0.000546     -0.000124
     -3.00454      5.95554      9.12370        -0.000104      0.000354      0.000865
     -1.53727      7.49860      7.56259         0.001181      0.000502      0.000429
     -0.07150      8.99032      5.97014         0.000925     -0.000242     -0.000429
      1.51887     10.61014      4.45278         0.000462     -0.000175     -0.000380
     -3.02133      3.04049     12.03569        -0.000635     -0.000334      0.000094
     -1.48189      4.50348     10.55153        -0.000017     -0.000538      0.000221
      7.52927     -1.51983      1.54147         0.000235     -0.000260      0.000106
      1.47117      7.51134      7.56345         0.000784      0.000189      0.000331
      2.95473      8.95063      5.94302         0.000808     -0.000436     -0.000295
      6.19289     -5.99460      6.00581        -0.000759     -0.000623      0.000199
      7.58793     -4.48793      4.54868        -0.000442     -0.000907      0.000778
      9.05582     -2.99163      3.07968        -0.000223     -0.000658     -0.000475
     10.56131     -1.52526      1.56005         0.000019      0.000394     -0.000517
     11.97543      0.06820      0.10422         0.000260      0.000286      0.000010
     -1.45713      1.47110      1.57201        -0.000630      0.000686      0.000606
      7.47621     -4.51037      7.56540         0.000086     -0.000272     -0.000205
      1.61094      4.50855     -1.43020         0.000362     -0.000306      0.000090
      3.03145      6.05890     -2.97125        -0.000245      0.000437     -0.000156
      4.50746      7.55489     -4.49112         0.000112      0.000377      0.000104
      7.53502      7.54386     -4.51205         0.000292     -0.000073      0.000075
      1.51525      1.60305      1.50210        -0.000169     -0.000285      0.000172
      4.46627      4.51662     -1.52034         0.000131     -0.000435     -0.000507
      5.98516      6.08359     -2.99748        -0.000086      0.000092     -0.000168
      1.51547     -1.50185      4.50722         0.000332     -0.000486     -0.000100
      3.01971     -0.01027      3.02125         0.000063     -0.000192      0.000251
      4.58605      1.50993      1.58477         0.000787      0.000096     -0.000477
      7.46646      4.63311     -1.59762         0.001296     -0.000598     -0.000499
      3.07920     -2.85990      5.94773         0.000149      0.000340     -0.000030
      4.52037     -1.53196      4.51522        -0.000246     -0.000583      0.000741
      6.03317     -0.05386      3.06077        -0.000007     -0.000458      0.000234
      7.47016      1.44466      1.61790         0.000521     -0.000265      0.000068
      6.09704     -2.98471      6.00761         0.000340     -0.000259      0.000264
      7.58517     -1.51805      4.54702        -0.000188     -0.000617      0.000884
      9.06527     -0.01535      3.07251         0.000004     -0.000119     -0.000260
     10.58361      1.39018      1.61970        -0.000019      0.000577      0.000678
      4.51228     10.53968     -4.49264        -0.000203      0.000778      0.000646
     -1.49266      4.54310      1.54180         0.000483      0.000295     -0.000037
      7.56667     -1.50233      7.52974         0.000206     -0.000316      0.000134
      9.05461      0.02552      6.00108         0.000334     -0.000092      0.000155
      5.99888      9.04647     -2.98521        -0.000741      0.000142     -0.000058
     -0.02588      3.01531      3.05345         0.000245     -0.000019      0.000520
      1.49758      4.51865      1.39533         0.000028     -0.000247     -0.000039
      3.01255      6.23478     -0.08223         0.000004     -0.000346     -0.000252
      0.00550      0.02097      6.03456        -0.000027     -0.000495      0.000144
      1.46532      1.46299      4.53865         0.000440      0.000529     -0.000773
      5.97556      6.08595     -0.07577        -0.000466     -0.000538     -0.000409
      1.50821     -1.44508      7.54525         0.000189      0.000187     -0.000153
      3.01878      0.00551      6.04038         0.000136     -0.000071      0.000383
      4.56131      1.46854      4.54785        -0.000044      0.000098      0.000197
      7.42508      4.55517      1.59159         0.000543     -0.000067     -0.000657
      3.10880     -2.88538      9.21025        -0.000197      0.000546     -0.000010
      4.55086     -1.50321      7.56175        -0.000150      0.000162      0.000220
      6.04738     -0.02593      6.05533         0.000520     -0.000351      0.000553
      7.53402      1.48793      4.54335        -0.000247     -0.000761      0.000268
      9.09759      2.96279      3.09630        -0.000169     -0.000170     -0.000074
      2.99857     12.06409     -3.01370        -0.000078      0.000344      0.000152
     -3.04880      6.06769      3.04870        -0.000398      0.000149      0.000183
      6.02014      0.00626      9.03735         0.000472      0.000171      0.000085
      7.52725      1.47689      7.51575         0.000222     -0.000222     -0.000673
      9.07586      2.97736      6.00766         0.000142      0.000421      0.000199
      4.50399     10.55479     -1.54303        -0.000446      0.000611      0.000824
     -1.55002      4.48721      4.55846        -0.000375      0.000613     -0.000110
      1.49067      7.58233      1.47428         0.000358      0.000572      0.000172
      3.08060      9.03672     -0.06404        -0.000216      0.000445     -0.000304
      6.00011      9.04022     -0.04199        -0.000450      0.000269     -0.000330
     -0.01519      3.00046      6.01348        -0.000330      0.000174     -0.000397
      2.92788      5.97988      2.95341        -0.000269     -0.000967     -0.000089
      4.52037      7.53464      1.48637        -0.000516      0.000036     -0.000083
      7.52808      7.53824      1.45622        -0.000004     -0.000363     -0.000027
      1.49360      1.46410      7.52204        -0.000643      0.000366     -0.000188
      3.01646      2.98995      6.04811         0.000003     -0.000221     -0.000182
      4.51983      4.43010      4.42008         0.000118     -0.000347      0.000581
      6.06694      5.97939      2.90151        -0.000432     -0.001413     -0.001302
      1.51438     -1.50705     10.61011        -0.000046     -0.000046     -0.000090
      3.03605     -0.00938      9.03298         0.000054     -0.000089     -0.000070
      4.53786      1.48957      7.54437         0.000034      0.000322      0.000110
      6.04049      2.95719      6.06616         0.000964     -0.000107      0.000229
      7.56619      4.39190      4.46246         0.000224     -0.000461     -0.000578
      1.55940     -1.50774     13.53202         0.000418      0.000315      0.000028
     -3.01002      9.03641      3.02890         0.000066      0.000422     -0.000226
     -1.50635     10.55273      1.50459         0.000361      0.000205     -0.000159
      0.06006     12.01972      0.02063        -0.000056      0.000843     -0.000319
     -4.48345      4.53979      7.48349         0.000334      0.001303      0.000128
     -3.01613      6.02562      5.98469        -0.000066      0.000451      0.000842
     -1.54030      7.53656      4.53196        -0.000317      0.000219      0.000192
     -0.04196      9.04921      3.02236        -0.000514      0.000598     -0.000588
     -3.02005      3.03352      9.05092        -0.000264      0.000123      0.000772
     -1.54682      4.50517      7.54122        -0.000175      0.000750      0.000000
     -0.02475      6.00389      6.04375        -0.000015     -0.000052     -0.000178
      1.48954      7.54173      4.52642         0.000143      0.000396     -0.000091
      3.00844      9.05924      2.99175        -0.000592      0.000229     -0.000561
     -1.48383      1.55351     10.48623        -0.000252      0.000060     -0.000887
     -0.02532      3.00848      9.03078         0.000160     -0.000348      0.000243
      2.93772      5.97123      6.01251         0.000525      0.000065     -0.000398
      0.07291      0.06413     12.04040        -0.000659     -0.000720      0.000407
      3.03739      2.99845      9.05435        -0.000308      0.000006     -0.000126
      4.50115      4.43552      7.64187         0.000340      0.000587     -0.000440
      6.05993      2.97278     -0.04505        -0.000152     -0.000211      0.000872
      2.95445      2.97913      3.09266        -0.001075     -0.001052      0.001228
     -0.00494      6.01961      3.02417        -0.000392     -0.000156      0.000449
      1.48613      4.50121      7.56059         0.000154      0.000416      0.001287
      1.53846      1.50187     10.57790        -0.000770      0.000947     -0.001153
      9.09210      3.08356      0.02435         0.000461      0.000058     -0.000107
      6.04916      6.03665      6.09518         0.000035     -0.000477     -0.000812
 -----------------------------------------------------------------------------------
    total drift:                                0.002429      0.002878     -0.003677


--------------------------------------------------------------------------------------------------------



  FREE ENERGIE OF THE ION-ELECTRON SYSTEM (eV)
  ---------------------------------------------------
  free  energy   TOTEN  =     -1122.69640449 eV

  energy  without entropy=    -1122.67582852  energy(sigma->0) =    -1122.68954583
 


--------------------------------------------------------------------------------------------------------


    POTLOK:  cpu time      0.4868: real time      0.1716


--------------------------------------------------------------------------------------------------------




--------------------------------------------------------------------------------------------------------


  
 reached required accuracy - stopping structural energy minimisation
     LOOP+:  cpu time   5189.3269: real time   5184.0305
    4ORBIT:  cpu time      0.0000: real time      0.0000



 total charge

# of ion       s       p       d       tot
------------------------------------------
    1        0.421   6.316   4.213  10.950
    2        0.419   6.329   4.183  10.931
    3        0.426   6.327   4.225  10.978
    4        0.412   6.314   4.210  10.936
    5        0.411   6.325   4.216  10.952
    6        0.414   6.324   4.187  10.925
    7        0.374   6.288   2.155   8.818
    8        0.355   6.285   2.094   8.735
    9        0.348   6.276   2.111   8.735
   10        0.367   6.304   2.158   8.829
   11        0.362   6.279   2.164   8.804
   12        0.353   6.218   3.062   9.633
   13        0.342   6.208   3.001   9.551
   14        0.370   6.237   3.123   9.731
   15        0.358   6.238   3.067   9.662
   16        0.349   6.228   3.029   9.607
   17        0.355   6.227   3.065   9.647
   18        0.349   6.217   3.033   9.599
   19        0.355   6.237   3.065   9.657
   20        0.359   6.235   3.073   9.667
   21        0.360   6.235   3.079   9.674
   22        0.349   6.235   3.026   9.610
   23        0.353   6.229   3.081   9.664
   24        0.348   6.227   3.019   9.594
   25        0.347   6.227   3.021   9.595
   26        0.358   6.240   3.062   9.660
   27        0.355   6.243   3.060   9.658
   28        0.346   6.231   3.027   9.604
   29        0.352   6.211   3.082   9.645
   30        0.349   6.215   3.063   9.627
   31        0.356   6.239   3.077   9.672
   32        0.349   6.236   3.059   9.644
   33        0.353   6.238   3.061   9.652
   34        0.350   6.211   3.067   9.628
   35        0.355   6.227   3.064   9.646
   36        0.368   6.233   3.087   9.688
   37        0.347   6.216   3.003   9.566
   38        0.359   6.245   3.054   9.658
   39        0.359   6.242   3.072   9.673
   40        0.355   6.236   3.053   9.644
   41        0.350   6.216   3.066   9.631
   42        0.353   6.225   3.040   9.617
   43        0.357   6.244   3.061   9.662
   44        0.357   6.238   3.064   9.659
   45        0.351   6.236   3.040   9.627
   46        0.354   6.227   3.055   9.636
   47        0.354   6.226   3.084   9.664
   48        0.358   6.220   3.102   9.681
   49        0.359   6.240   3.087   9.686
   50        0.358   6.239   3.077   9.674
   51        0.354   6.234   3.062   9.650
   52        0.354   6.231   3.066   9.651
   53        0.356   6.238   3.060   9.654
   54        0.357   6.242   3.053   9.652
   55        0.360   6.224   3.119   9.703
   56        0.353   6.235   3.038   9.626
   57        0.355   6.236   3.075   9.665
   58        0.354   6.237   3.053   9.643
   59        0.361   6.238   3.091   9.690
   60        0.357   6.245   3.055   9.658
   61        0.349   6.243   3.035   9.627
   62        0.349   6.224   3.039   9.612
   63        0.373   6.246   3.077   9.696
   64        0.360   6.242   3.072   9.674
   65        0.357   6.240   3.095   9.692
   66        0.351   6.238   3.035   9.624
   67        0.351   6.227   3.042   9.620
   68        0.357   6.242   3.045   9.644
   69        0.356   6.243   3.061   9.660
   70        0.352   6.223   3.092   9.667
   71        0.358   6.223   3.089   9.671
   72        0.355   6.231   3.066   9.651
   73        0.357   6.242   3.056   9.655
   74        0.358   6.245   3.056   9.659
   75        0.352   6.233   3.045   9.630
   76        0.360   6.240   3.072   9.673
   77        0.355   6.241   3.072   9.668
   78        0.354   6.241   3.060   9.656
   79        0.357   6.233   3.065   9.655
   80        0.356   6.240   3.050   9.646
   81        0.360   6.241   3.083   9.684
   82        0.355   6.243   3.077   9.675
   83        0.354   6.234   3.074   9.662
   84        0.358   6.242   3.054   9.654
   85        0.356   6.244   3.032   9.632
   86        0.354   6.246   3.053   9.653
   87        0.346   6.230   3.034   9.610
   88        0.356   6.232   3.065   9.654
   89        0.354   6.239   3.064   9.657
   90        0.350   6.243   3.051   9.644
   91        0.347   6.242   3.034   9.623
   92        0.348   6.226   3.068   9.643
   93        0.349   6.219   3.075   9.643
   94        0.349   6.235   3.036   9.619
   95        0.355   6.243   3.064   9.662
   96        0.358   6.240   3.059   9.657
   97        0.353   6.231   3.054   9.638
   98        0.354   6.230   3.052   9.636
   99        0.351   6.223   3.049   9.622
  100        0.353   6.239   3.048   9.640
  101        0.355   6.235   3.053   9.644
  102        0.352   6.217   3.081   9.650
  103        0.356   6.238   3.049   9.643
  104        0.359   6.235   3.081   9.675
  105        0.356   6.241   3.087   9.685
  106        0.352   6.236   3.051   9.638
  107        0.356   6.239   3.050   9.645
  108        0.353   6.241   3.040   9.635
  109        0.350   6.246   3.045   9.641
  110        0.356   6.236   3.089   9.681
  111        0.357   6.227   3.085   9.669
  112        0.351   6.231   3.056   9.639
  113        0.354   6.246   3.082   9.682
  114        0.346   6.232   3.021   9.598
  115        0.351   6.225   3.095   9.671
  116        0.353   6.250   3.077   9.680
  117        0.352   6.222   3.087   9.661
  118        2.456   6.240   3.497  12.194
  119        2.460   6.260   3.497  12.217
  120        2.444   6.275   3.423  12.142
  121        2.447   6.272   3.460  12.179
  122        2.446   6.271   3.449  12.166
  123        2.257   5.976   1.873  10.106
  124        2.262   5.968   1.907  10.137
--------------------------------------------------
tot         58.637 773.417 381.4881213.542
 

 total amount of memory used by VASP MPI-rank0  7396245. kBytes
=======================================================================

   base      :      30000. kBytes
   nonl-proj :    1292066. kBytes
   fftplans  :      67629. kBytes
   grid      :     189621. kBytes
   one-center:       1928. kBytes
   wavefun   :    5815001. kBytes
 
  
  
 General timing and accounting informations for this job:
 ========================================================
  
                  Total CPU time used (sec):     5515.421
                            User time (sec):     4808.506
                          System time (sec):      706.915
                         Elapsed time (sec):     5507.229
  
                   Maximum memory used (kb):     9722660.
                   Average memory used (kb):          N/A
  
                          Minor page faults:      1138237
                          Major page faults:          439
                 Voluntary context switches:       765556
