127
Lattice="11.70768973389371 -0.002250307332512871 -0.0019466255880301723 -0.002249862950098287 11.710222439864033 0.0004896967677449288 -0.0019465675636481234 0.0004893274348689812 11.712193634487997" Properties=species:S:1:pos:R:3:energies:R:1:forces:R:3 energy=-1139.9182310517335 free_energy=-1139.9182310517335 stress="-0.006209309367402542 0.0008751846610854664 0.0012724229766207587 0.0008751846610854664 -0.006114784253415642 0.0005534227493634651 0.0012724229766207587 0.0005534227493634651 -0.005858575430387733" pbc="T T T"
Cr       0.01420577       8.78513314       0.01156438      -7.59266528       0.01307472       0.00828746       0.00739107
Cr       4.41081823       4.36979438       1.44719061      -7.55540467       0.00125879      -0.00076028      -0.00208053
Cr       4.42293263       7.32163790       1.43948952      -7.76702537       0.00650438       0.00415226       0.00390134
Cr       8.74460826       2.96280037       5.85571964      -7.23402889       0.00388197       0.00109485       0.00250594
Ti       0.02839540       2.94723285       2.95317153      -7.93833810       0.04741043      -0.08834925       0.05193739
Ti       1.46471595       7.32560815       4.40331921      -8.35671954      -0.00228638       0.01115374      -0.00263111
Ti       2.84341691       0.06452443       5.77704434      -7.89899198       0.01030143       0.01329835       0.00989798
Ti       2.88109752       2.90625880       5.80758346      -7.87561819      -0.00278565       0.00291827      -0.00459655
Ti       2.94773274       8.74879817       5.87847939      -8.38849608       0.00288508       0.00579947       0.00226922
Ti      10.26607028       1.47379393       7.32204758      -8.68494129       0.00760807      -0.00860543       0.00654721
Ti       8.77913748       8.79424519       2.93618535      -7.98679375       0.00527829       0.00467695       0.01335831
V        0.00442034       0.00514992       0.01564127      -9.86191725       0.00790443      -0.00467883       0.08320454
V        1.48967479       1.49853192       1.38728745      -9.12910097       0.01404140       0.00557551       0.01472924
V        0.23014095       0.22868037       3.16848291      -9.04259660      -0.61543542      -0.62320620      -0.62115815
V        0.02013474      -0.02591052       5.87863449      -9.24322008       0.01810997       0.02047510      -0.06843782
V        1.44702373       1.46517514       7.39143616      -8.86091876      -0.01044415      -0.00308075       0.00879736
V        0.00293027      -0.02011732       8.81822716      -9.81611413       0.00280139       0.00301503       0.01307712
V        1.47652298       1.47096288      10.25046585      -9.30947117      -0.00376231      -0.00109805       0.01503009
V       -0.00483507       2.93107986      -0.00662067      -9.30532173       0.00749766       0.00839181       0.00526890
V        1.47289808       4.41461655       1.45480904      -9.18253798      -0.00012541       0.00320269       0.00679578
V        1.47142763       4.47583726       4.39489045      -8.82143733       0.00177690       0.01020246       0.00088223
V        0.05502707       2.89498831       5.79566770      -8.84805826      -0.00952325       0.04534450       0.04845203
V        1.45995571       4.38720278       7.31455762      -8.96829939      -0.00204720       0.00352724       0.00459153
V        0.00277905       2.94109839       8.80060947      -9.37597119       0.00119901      -0.00403800       0.00758265
V        1.45562807       4.40656451      10.25094303      -9.08011379       0.00394217       0.00374164       0.00269373
V        1.48648173       7.30740391       1.48895946      -9.56151662       0.00325682       0.00925307       0.01293616
V       -0.01154058       5.86745893       2.94651160      -8.97718196       0.00443490       0.01001794       0.00368827
V       -0.01143579       5.86192246       5.87064558      -9.01281174       0.00249500       0.00440899      -0.00125751
V        1.47069264       7.31936671       7.31976269      -9.05798325       0.00237205       0.00311407       0.00533441
V       -0.00805096       5.85710208       8.76573797      -8.98638597       0.00075810       0.00366872       0.00482530
V        1.46874892       7.30360680      10.24744475      -9.16071748       0.00422694       0.00534275       0.00646497
V        0.00344203       8.81288891       2.94682161      -9.43946326       0.01112307       0.07639721      -0.00020634
V        1.49023507      10.16545251       4.42645270      -9.18079843       0.00689780       0.02128291       0.00908164
V       -0.00344717       8.77031516       5.87159155      -9.38176782       0.00603087       0.00115524       0.01145416
V        1.47013436      10.23804548       7.32458593      -9.25150700      -0.00754458       0.01351124      -0.00681395
V       -0.00939306       8.78704470       8.77608247      -9.52122683       0.00188531       0.00919033       0.00969961
V        1.47441710      10.25252412      10.23855649      -9.39165253      -0.00167184       0.01262612       0.00865939
V        2.93969633      -0.00212873      -0.01648125      -9.39448365       0.00523353       0.00278524       0.00563968
V        4.39892082       1.45234083       1.45936794      -9.12965568       0.00238663      -0.00490015       0.00749279
V        2.95157346       0.01119122       2.93223269      -9.23102335      -0.06464715       0.01721490       0.00820559
V        4.45713244       1.45706180       4.37416384      -8.79407438       0.01056499      -0.00315143      -0.00875113
V        4.35043306       1.45523360       7.31542068      -8.94961582      -0.00437261      -0.00307363      -0.00519468
V        2.93074558      -0.00882653       8.78650127      -8.92260123      -0.00707770       0.00342410       0.00477860
V        4.38917959       1.45686604      10.24997790      -8.98495491       0.00305787       0.00223102       0.00054309
V        2.94342970       2.91978275      -0.02298848      -9.02925518       0.00414408       0.00270451       0.00253383
V        2.86419660       2.85393441       2.97108868      -8.83466151       0.04728620       0.03350528      -0.01101077
V        4.38351842       4.37906933       4.38144904      -9.39776732       0.00519472       0.00443026      -0.00410256
V        4.37943352       4.40596516       7.31562453      -9.00250864      -0.00021254       0.00045779      -0.00019536
V        2.92864860       2.93351417       8.78662866      -8.91486872      -0.00049726      -0.00038940       0.00369536
V        4.39338979       4.38552847      10.23257410      -9.08237014       0.00027777       0.00057530       0.00077009
V        2.94746515       5.84992475      -0.01884140      -9.16264760       0.00353631       0.00415177       0.00145056
V        2.94539974       5.86501813       2.95552572      -9.59521337       0.00050941       0.00611747       0.00292999
V        2.95134869       5.87800348       5.86427110      -9.35528813       0.00188709       0.00459338       0.00060472
V        4.39375662       7.31995290       7.34252069      -9.23446537      -0.00070172       0.00348869      -0.00080537
V        2.92913998       5.85182059       8.77773361      -8.96567579      -0.00025605       0.00069224       0.00002133
V        4.39785094       7.32336485      10.23371281      -9.09698345       0.00327413       0.00394543       0.00220792
V        2.93118708       8.81063403      -0.01183473      -9.58001820       0.01364972       0.00456423       0.00389429
V        4.41865630      10.25170103       1.46685240      -9.39073461       0.01562192       0.01100909       0.00804876
V        2.95391518       8.78631080       2.94533236      -9.94008845       0.00906016       0.00729847       0.00211966
V        4.39515370      10.25088299       4.39513588      -9.34646893      -0.00410208       0.01376721      -0.00896210
V        4.36620925      10.23494476       7.30318447      -9.02643528      -0.00643448       0.00524944      -0.00685317
V        2.91985027       8.78662068       8.78912386      -8.97690925       0.00230050       0.00381218       0.00117008
V        4.39480451      10.24899940      10.24379645      -9.03759168       0.00452646       0.00475639      -0.00008431
V        5.86161937      -0.00183450      -0.00570309      -8.92204531       0.01189468       0.00302400       0.00616302
V        7.32282852       1.45761132       1.45667581      -9.05604276       0.01559222       0.00312307       0.01059929
V        5.87232654      -0.01083859       2.91915163      -8.94440233       0.01319496       0.00431520       0.00208631
V        7.30831395       1.46327839       4.36122184      -9.06086457       0.01787849      -0.00333273      -0.00355156
V        5.85787019      -0.00194723       5.87463354      -9.02967546       0.00589154       0.00248907      -0.00496427
V        5.86068909       0.01046094       8.77167045      -9.00807942      -0.00161796       0.00185268      -0.00186872
V        7.30305443       1.46155764      10.28161039      -9.20917374       0.00529866       0.00297747       0.00856907
V        5.85938501       2.92448935      -0.00506861      -9.03262003       0.00407574       0.00301226       0.00158510
V        7.31798497       4.39081511       1.46241093      -9.09136403       0.00610941       0.00432165       0.00427492
V        5.86109810       2.93399916       2.91505954      -9.06488297       0.00799492      -0.00224213      -0.00031525
V        7.30113440       4.41908259       4.37822277      -9.14888799       0.00409251       0.00490596       0.00347767
V        5.85178824       2.93063581       5.86925166      -9.10513977       0.00400917       0.00008141      -0.00196252
V        7.30418336       4.43106037       7.32184060      -9.02490101       0.00045550      -0.00091879      -0.00045043
V        5.85794189       2.91107995       8.77519854      -9.05851872      -0.00225694      -0.00220106      -0.00287015
V        7.31681189       4.39828644      10.25143884      -9.04418968       0.00157851       0.00436232       0.00328746
V        5.87182860       5.83854369      -0.01113303      -9.14651603       0.00393740       0.00207148       0.00359041
V        7.32399707       7.32188435       1.47024029      -9.16425957       0.00968961       0.00989428       0.00531660
V        5.85631783       5.85903280       2.94535364      -9.59341210       0.00559427       0.00204036       0.00162647
V        7.32809464       7.32276129       4.39251375      -9.25821631       0.00708342       0.00760074       0.00348432
V        5.84407799       5.87245456       5.84229765      -9.46623953      -0.00057421       0.00161467      -0.00095507
V        7.30793266       7.32208709       7.31801756      -9.07912847       0.00168977       0.00310416       0.00406565
V        5.85738469       5.85740865       8.78082363      -8.91609947       0.00044442       0.00219635       0.00103883
V        7.31420666       7.31925911      10.24021046      -8.98407320       0.00317240       0.00294394       0.00307931
V        5.86796673       8.78995036      -0.01456581      -9.03485373       0.01041849       0.00496125       0.00406954
V        7.32471580      10.25003373       1.47449632      -8.98166371       0.02606845       0.01465052       0.01660335
V        5.86383392       8.77488549       2.94891542      -9.47104294       0.01154112       0.00865181       0.00303448
V        7.31515525      10.22769303       4.38542067      -9.05483789       0.01386691       0.00943699       0.00019638
V        5.83248934       8.75803134       5.84398012      -9.40581433       0.00086371       0.00386635       0.00099763
V        7.29349608      10.21133747       7.32030441      -9.20150833       0.00073938       0.00381327       0.00511862
V        5.85524341       8.78221615       8.78261181      -8.93541869       0.00024601       0.00575047      -0.00003788
V        7.30892357      10.23566266      10.25697246      -9.05208423       0.00781816       0.00564112       0.00924475
V        8.78954878       0.00026268       0.01020065      -9.42766647       0.00713365       0.01071943       0.00818152
V       10.26818892       1.46592407       1.50032526      -9.27324361      -0.03002503       0.03591826      -0.02911059
V        8.79564114       0.00168975       2.93039095      -8.89706717       0.07544186       0.00589878       0.00687374
V       10.18254221       1.47982206       4.41165689      -8.90142021       0.01631626       0.00448840       0.01702776
V        8.75237042      -0.02421307       5.86698263      -9.53141461      -0.00378557       0.00639110       0.01165989
V        8.75569956      -0.01159454       8.80160576      -9.82886839       0.00594776       0.00155898       0.01430857
V        8.77818423       2.91563412      -0.00120393      -9.38459793       0.00316579       0.01408395       0.00339872
V       10.24830652       4.40866819       1.44443415      -9.03303364       0.01196754       0.00941639       0.00879891
V        8.77670619       2.94376728       2.91268709      -9.02048587       0.00758180       0.01035730       0.00845765
V       10.23618699       4.40544775       4.39875555      -9.05898393       0.00618835       0.00510744      -0.00029340
V       10.25219556       4.40001791       7.31534012      -9.10781049      -0.00363704       0.00343405       0.00541862
V        8.76040932       2.93625409       8.80496682      -9.51873445      -0.00117624       0.00263080       0.00760395
V       10.24685661       4.40587180      10.25376433      -9.25664693       0.00406385       0.00434498       0.00689333
V        8.76461532       5.85383775      -0.00753748      -8.99078938       0.00553758       0.01040577       0.00652062
V       10.23839189       7.31512796       1.47484556      -9.12904187       0.01265104       0.02520069       0.02194014
V        8.77313584       5.86282497       2.93646019      -8.99002257       0.00910787       0.01220062       0.00310980
V       10.23337218       7.33619372       4.39850757      -8.97412768       0.01148676       0.01116030       0.00192897
V        8.77309050       5.87242948       5.85464360      -9.06736348       0.00071361       0.00424859       0.00422816
V       10.23351269       7.30964745       7.32155895      -9.22634198       0.00369843       0.00283498       0.00644955
V        8.77219684       5.86160696       8.77595324      -8.98955601       0.00426500       0.00283263       0.00435233
V       10.23345646       7.30579137      10.23768687      -9.13222812       0.00629101       0.00851714       0.01074244
V        8.77719156       8.79652770       0.00391634      -9.04794655       0.00517045       0.00591962       0.00612836
V       10.25263868      10.28912108       1.51494248      -9.36873268      -0.00416761      -0.00690362      -0.00227353
V       10.26741650      10.27103801       4.39734940      -9.31287227      -0.03061255      -0.03349671       0.03774086
V        8.77451900       8.77896100       5.86072152      -9.32930490       0.00199717       0.00138424       0.01431556
V        8.77420275       8.77876262       8.78320369      -9.40129535       0.00469698       0.00478405       0.01001706
V       10.22517603      10.25039421      10.25040671      -9.63710841       0.01276917       0.01609849       0.02351989
W        1.48136651      10.29385901       1.50461097      -6.96974447       0.05029423      -0.04095614      -0.03179521
W        4.41086601       7.31270389       4.42380546      -6.66731623       0.00523862       0.00457968       0.00232258
W       10.24041548       1.46546063      10.26813066      -6.68621216       0.00973422       0.00056352       0.01753095
W       10.24231430      10.22893635       7.33058659      -6.69180782       0.00578172       0.00861342       0.00752497
Zr       0.00050298       5.85763407       0.00089438      -8.00397323       0.00368197       0.01050573       0.01082625
Zr       7.27421542       1.44629334       7.34433779      -8.09304056      -0.00185004       0.00288009       0.00709571
