127
Lattice="11.70768973389371 -0.002250307332512871 -0.0019466255880301723 -0.002249862950098287 11.710222439864033 0.0004896967677449288 -0.0019465675636481234 0.0004893274348689812 11.712193634487997" Properties=species:S:1:pos:R:3:energies:R:1:forces:R:3 energy=-1139.669932094107 free_energy=-1139.669932094107 stress="-0.0044735056860179005 0.0009867169168772045 0.0007936910830800931 0.0009867169168772045 -0.00423612033028766 0.0007684238612598145 0.0007936910830800931 0.0007684238612598145 -0.004607934914092761" pbc="T T T"
Cr       0.01121727       8.78577275       0.01381640      -7.61816417       0.00175820       0.00549906       0.00358471
Cr       4.41253020       4.36959486       1.44334917      -7.55102252       0.00336925       0.00432751      -0.01519207
Cr       4.42107922       7.31979732       1.43903011      -7.77296581       0.00209711      -0.00512853      -0.00203763
Cr       8.74877342       2.95237591       5.84622966      -7.25682340      -0.01609263      -0.00308367      -0.00085223
Ti      -0.01711548       2.99026957       2.90358420      -7.82174783      -0.02107070       0.02103643      -0.01763571
Ti       1.46867072       7.31450871       4.40678487      -8.33401628      -0.00409178      -0.00334264      -0.00445576
Ti       2.89443738      -0.00806859       5.82717150      -7.97555878       0.03632725      -0.03567633       0.03594280
Ti       2.87806900       2.90005267       5.80381903      -7.99154296      -0.00116820       0.00423566       0.00334203
Ti       2.93625745       8.75291448       5.86807897      -8.41750404      -0.00604127      -0.01261907      -0.00601566
Ti      10.25418469       1.47573982       7.32493615      -8.64133474      -0.00369315      -0.01706097       0.00034002
Ti       8.78210262       8.79689672       2.93510412      -8.01035683       0.00554453       0.00651166       0.00177971
V       -0.00686921      -0.00340913      -0.05775234      -9.74793689       0.00820928       0.00052918      -0.01966130
V        1.45492035       1.46557091       1.43068861      -9.16998158      -0.00195977      -0.00536518       0.03113979
V        1.22910377       1.21717322       4.15982610      -8.78283729       0.39672197       0.38023705       0.39674535
V        0.00153255      -0.04254022       5.91271217      -9.23383014      -0.00409503       0.00159269       0.00543972
V        1.44862919       1.45617973       7.32398026      -8.97947451      -0.00127030      -0.00902063      -0.06695131
V        0.00795900      -0.01488635       8.80227967      -9.83578273      -0.00185959      -0.00548067      -0.01012218
V        1.48050693       1.47357650      10.24096122      -9.28315896      -0.00494035      -0.00250862      -0.00494931
V       -0.00242149       2.91182913      -0.00251092      -9.32084917       0.00656645      -0.00566772       0.00219857
V        1.47092212       4.41374890       1.43989639      -9.17029014      -0.01633667      -0.00283873      -0.00372515
V        1.46249132       4.40614114       4.38759591      -8.92383584      -0.00787292      -0.06655800      -0.00803851
V        0.00007802       2.91416495       5.82039361      -9.04582834      -0.02615622       0.01833501       0.02592441
V        1.46367883       4.39059745       7.31901557      -8.96127912      -0.00904575      -0.01377490      -0.00996953
V        0.00705194       2.93807886       8.79212089      -9.39175696      -0.00433510      -0.01270723      -0.01062817
V        1.45553762       4.40012262      10.24718195      -9.09207434      -0.00065458      -0.00283485      -0.01349106
V        1.48906246       7.30269399       1.48754649      -9.53550446      -0.00712686      -0.00127165       0.00981569
V       -0.00484571       5.85388751       2.95278137      -9.00650055      -0.00303853      -0.02110706      -0.00265291
V       -0.00701593       5.85487052       5.86629614      -9.02516338      -0.00397614      -0.01180060      -0.01233469
V        1.47194072       7.31654765       7.31075120      -9.06858418      -0.00248468      -0.00965463      -0.00172945
V       -0.00701976       5.85522900       8.76233106      -8.98598168       0.00023068      -0.00628165      -0.00626575
V        1.46896234       7.30174824      10.24427789      -9.15278374       0.00068747      -0.00141711      -0.00233028
V       -0.00771052       8.73999194       2.94183024      -9.31122841       0.00487143      -0.00770980       0.00916094
V        1.45135017      10.21204858       4.39007795      -9.23587237      -0.00810335       0.04404018       0.00055693
V        0.00070049       8.77543187       5.85105905      -9.38733036       0.01269153       0.00700117      -0.00346884
V        1.47219093      10.22439123       7.32351326      -9.23753884      -0.00809856      -0.00448511      -0.00738750
V       -0.00829808       8.78210166       8.76998296      -9.51130422      -0.00271368       0.00023517      -0.00299349
V        1.47642008      10.25012293      10.23264204      -9.36428395      -0.01118420       0.01026446      -0.00056106
V        2.92249803       0.00252541      -0.01389759      -9.39114521      -0.01196282       0.00926940       0.00761481
V        4.39816183       1.45108688       1.44501116      -9.11365714      -0.00068984      -0.01427890      -0.00369044
V        2.98829197      -0.00852301       2.92036611      -9.19461083       0.01042117      -0.00780730      -0.00316423
V        4.38764899       1.44899692       4.37483708      -8.91526514      -0.06617643      -0.00802021       0.00134605
V        4.35009384       1.45576932       7.31781921      -8.94445057      -0.01309377      -0.01114285      -0.01487059
V        2.92857895      -0.00505515       8.77757767      -8.93925480      -0.01486827      -0.00442035      -0.00982623
V        4.38259402       1.45760147      10.24700773      -8.99453615      -0.00187842      -0.00088874      -0.01108685
V        2.93408518       2.91085120      -0.01777295      -9.05226450      -0.00492855      -0.00428938      -0.01306625
V        2.89051504       2.88768937       2.91821846      -9.04359237       0.03354901       0.03002005      -0.02710426
V        4.38547214       4.38027438       4.38503541      -9.39343086      -0.00561613      -0.01013533      -0.00992792
V        4.37595567       4.40222850       7.31230848      -9.00689025      -0.00503224      -0.00650978      -0.00380945
V        2.91983105       2.92471302       8.77529464      -8.91765505      -0.01561641      -0.01473948      -0.02133365
V        4.39128161       4.38300635      10.22986511      -9.08556847       0.00001483      -0.00013089      -0.00834690
V        2.94638139       5.84614827      -0.01867823      -9.15737043      -0.00356368      -0.00056300      -0.00714639
V        2.94133918       5.85520637       2.95840434      -9.61146048      -0.01110140      -0.00889467      -0.00524302
V        2.94201606       5.86512415       5.85656241      -9.36012270      -0.01543728      -0.02138677      -0.01293832
V        4.39179380       7.31644266       7.34058482      -9.23928711      -0.00149732      -0.00957380      -0.00330412
V        2.93067243       5.84953729       8.77455111      -8.96149785      -0.00631674      -0.00832074      -0.00846391
V        4.39604776       7.32208053      10.23213947      -9.09733267      -0.00182652       0.00129418       0.00043597
V        2.92310857       8.81309912      -0.01127419      -9.54998104      -0.00305891       0.00414517       0.00241021
V        4.40878380      10.24517110       1.46093995      -9.35085199      -0.01271882       0.01741001       0.01713981
V        2.93538023       8.78671407       2.95165795      -9.93004589      -0.00347842       0.00786765       0.01454483
V        4.39258344      10.23799928       4.39775425      -9.33866294      -0.00729919      -0.00156186      -0.00946960
V        4.37172751      10.22672098       7.30884326      -9.02760773       0.00083355      -0.01322135       0.00017798
V        2.91961643       8.78671315       8.78548752      -8.97311834      -0.00452958      -0.00631893      -0.00334239
V        4.39208406      10.24935598      10.24381248      -9.03321288       0.00220960      -0.00249131      -0.00291924
V        5.85670552      -0.00177397      -0.01059435      -8.91255874      -0.00249552      -0.00230154      -0.00180820
V        7.31365052       1.46093700       1.45390103      -9.04312600      -0.00175149      -0.00552970       0.00796937
V        5.85850723      -0.00639951       2.92458412      -8.97285794      -0.01599499      -0.00314277      -0.00329315
V        7.29371326       1.46804050       4.36614748      -9.03246946      -0.00977295      -0.00580415      -0.00750373
V        5.84850870       0.00040483       5.87046869      -9.04429041      -0.00703149      -0.00382008      -0.01397084
V        5.85834908       0.01051826       8.76926708      -9.00781877      -0.00660134       0.00073364      -0.00927056
V        7.29977643       1.46178961      10.27754731      -9.20801636      -0.00453721       0.00077432      -0.00341677
V        5.85629118       2.92350110      -0.00594899      -9.02630282      -0.00281373      -0.00334417      -0.00599219
V        7.31499077       4.38935449       1.46315409      -9.09920895      -0.00373084       0.00285394      -0.00214621
V        5.85109837       2.93068310       2.91869996      -9.08045457      -0.00869918      -0.01339566      -0.00418315
V        7.29791434       4.41271297       4.37952643      -9.15784214      -0.00885610      -0.00289710      -0.00404641
V        5.83916948       2.92218912       5.86161469      -9.10879939      -0.01627480      -0.01546819      -0.01737061
V        7.30135295       4.42906068       7.31909248      -9.03124265      -0.00945372      -0.00290038      -0.00507554
V        5.85512561       2.91225827       8.77233794      -9.05327269      -0.01085602      -0.00818855      -0.01195691
V        7.31605464       4.39606258      10.25083365      -9.04549918      -0.00199789      -0.00012125      -0.00058238
V        5.87034207       5.83777494      -0.01233264      -9.14640670      -0.00407599      -0.00270601       0.00371205
V        7.32166715       7.31806350       1.47089223      -9.16795719      -0.00454365      -0.00179523      -0.00056883
V        5.85297614       5.85599865       2.94546357      -9.59228662      -0.00594438      -0.00760607      -0.00070801
V        7.32486125       7.31978061       4.39272250      -9.25537207      -0.00446102      -0.00220655       0.00157720
V        5.84046744       5.86934161       5.84387880      -9.45901363      -0.00865082      -0.00843798      -0.00770640
V        7.30650853       7.32150334       7.31591939      -9.07981939      -0.00092843       0.00073219      -0.00242726
V        5.85676157       5.85635615       8.78070318      -8.91965842      -0.00634449      -0.00574484      -0.00715998
V        7.31318076       7.31801219      10.23938418      -8.98209911      -0.00038918      -0.00111884      -0.00101573
V        5.86377270       8.78823240      -0.01570520      -9.03208891      -0.00224629      -0.00007974       0.00108433
V        7.30828119      10.24057143       1.46433239      -8.97699065      -0.00535330       0.00463758       0.00556280
V        5.85859172       8.77113827       2.94900030      -9.46066501      -0.00448521      -0.00081177      -0.00228584
V        7.30692552      10.22495375       4.38871864      -9.03892646      -0.00389296       0.00686855      -0.00730468
V        5.82929211       8.75912453       5.84432246      -9.39869051      -0.00294749      -0.00545416      -0.00502057
V        7.29308229      10.21138323       7.31849397      -9.21110737      -0.00168670      -0.00357871       0.00253505
V        5.85433444       8.78038342       8.78193188      -8.93561465      -0.00364932       0.00043894      -0.00313476
V        7.30600062      10.23678612      10.25379994      -9.05641708      -0.00324144      -0.00074835      -0.00342444
V        8.79436994       0.00055660       0.01293663      -9.43137381       0.00280453       0.00163776       0.00413233
V       10.28828879       1.41464651       1.51563539      -9.09512206      -0.01356079      -0.00205581      -0.00908450
V        8.72716418      -0.00881067       2.92128338      -8.76848020      -0.00661682       0.00540657       0.00673891
V       10.22987952       1.43520980       4.36128155      -8.92620434       0.04330551      -0.01725214      -0.01670828
V        8.76045496      -0.01925552       5.84927803      -9.53833536       0.00160531       0.01063024      -0.00593665
V        8.75155508      -0.01034237       8.79501350      -9.82174765      -0.00186160      -0.00232142      -0.00308470
V        8.78238862       2.90646445       0.00251844      -9.38540167       0.00439304      -0.00094681       0.00325200
V       10.23977080       4.40525121       1.43859572      -9.01617125       0.01950656      -0.01668651       0.01629476
V        8.77685316       2.92550271       2.91569179      -9.03246698       0.00698330      -0.00536088       0.00765917
V       10.22200817       4.40261558       4.39731531      -9.04629783       0.00003551      -0.00746057      -0.01677581
V       10.24424820       4.40289363       7.31829801      -9.10634895      -0.01728094      -0.00059633      -0.00114794
V        8.75983700       2.93594258       8.80011184      -9.51734197      -0.00635348      -0.00386467      -0.00154256
V       10.24769184       4.40537541      10.25025467      -9.26522877      -0.00139418       0.00111601      -0.00358313
V        8.76423316       5.84963890      -0.00851812      -8.98758620      -0.00078959       0.00040318      -0.00041189
V       10.23308617       7.30500513       1.46653726      -9.12726129       0.00434507      -0.00141594       0.00794628
V        8.76914338       5.85738581       2.93729737      -8.98279127      -0.00119699      -0.00341472      -0.00279529
V       10.23132712       7.32944042       4.40121919      -8.95973433       0.00824418      -0.00388219      -0.00364926
V        8.77288599       5.86971468       5.85389689      -9.06274127      -0.00891511      -0.00122275      -0.00337341
V       10.23415795       7.30848771       7.31919395      -9.23429039      -0.00269628      -0.00147308       0.00260488
V        8.77017104       5.86123102       8.77463672      -8.98729963      -0.00050181      -0.00214485      -0.00248001
V       10.23385820       7.30266882      10.23478712      -9.13745517       0.00115067      -0.00045574      -0.00121705
V        8.77447747       8.79361138       0.00140902      -9.04593146       0.00367908      -0.00143012       0.00089285
V       10.24307276      10.27830538       1.50905609      -9.21907565       0.00060410       0.00422589       0.00778821
V       10.29733037      10.29707229       4.34540934      -9.13091561      -0.00591417      -0.01402238      -0.00420092
V        8.77791321       8.78314770       5.85215324      -9.33364779       0.00164497       0.00145206       0.00222940
V        8.77296130       8.77797182       8.77952546      -9.40069010       0.00126718      -0.00079889      -0.00258681
V       10.21894478      10.24189893      10.23865281      -9.63269901       0.00576832       0.00492255      -0.00323714
W        1.41475385      10.32541250       1.53316966      -7.02741780      -0.00727506      -0.00712752      -0.00562651
W        4.40172346       7.30886287       4.42380809      -6.67853102      -0.00348316      -0.00721285      -0.00620057
W       10.24095093       1.46816492      10.25521082      -6.68006747       0.00727879      -0.00246228      -0.00858325
W       10.23622776      10.22356252       7.32760410      -6.68124556       0.01442178       0.01300201      -0.00219088
Zr       0.00044797       5.85439932      -0.00717265      -7.99161094      -0.00311482       0.00299495      -0.00454746
Zr       7.27401420       1.44675268       7.33621178      -8.10664258      -0.01037771      -0.00378085       0.00122052
