127
Lattice="11.70768973389371 -0.002250307332512871 -0.0019466255880301723 -0.002249862950098287 11.710222439864033 0.0004896967677449288 -0.0019465675636481234 0.0004893274348689812 11.712193634487997" Properties=species:S:1:pos:R:3:energies:R:1:forces:R:3 energy=-1139.4627164135625 free_energy=-1139.4627164135625 stress="-0.007794529679993796 0.0013868492053856587 0.001794011846945943 0.0013868492053856587 -0.007766179942702109 0.0012240622394331373 0.001794011846945943 0.0012240622394331373 -0.007649653111726197" pbc="T T T"
Cr       0.01253315       8.78571950       0.01279486      -7.61760659       0.01008453      -0.00155156      -0.00355227
Cr       4.41042395       4.36959968       1.44708547      -7.55747655       0.00244915       0.00377969      -0.00629192
Cr       4.42282717       7.32034737       1.43874113      -7.76639880       0.00637039       0.00008034       0.00424344
Cr       8.74291162       2.96358604       5.85701360      -7.23099489      -0.00219083      -0.00337214      -0.00002788
Ti       0.00751885       2.98391398       2.93040675      -7.88879507       0.02007935       0.02573957       0.02390793
Ti       1.46691827       7.31992042       4.40612555      -8.35231183      -0.00173119       0.00886575       0.00093547
Ti       2.82878610       0.06764073       5.76184002      -7.96557801      -0.04288776       0.05472642      -0.04219291
Ti       2.88170249       2.90605267       5.80779220      -7.85618810       0.00295041       0.01159031       0.00350884
Ti       2.94817376       8.74661691       5.87919203      -8.38519698      -0.00079252      -0.00340015      -0.00084364
Ti      10.26155774       1.47724277       7.32377539      -8.67002827       0.00261971      -0.01314444       0.00839640
Ti       8.78060509       8.79559277       2.93440794      -8.00993630      -0.00324241      -0.00222939       0.00829514
V        0.00478545       0.00973164      -0.01408812      -9.75827817       0.02549475       0.02676526       0.07582658
V        1.48557694       1.49786171       1.38275102      -9.14109840       0.03766475       0.03166515      -0.03853614
V        0.48126493       0.48033956       3.42222540      -8.81123325      -0.48585243      -0.47089591      -0.45475748
V        0.00682807      -0.03699364       5.91028145      -9.26746501      -0.00520412       0.00364417       0.01817751
V        1.44728742       1.46546059       7.38948077      -8.86695757      -0.01002410      -0.00265006       0.00621867
V        0.00136163      -0.02093234       8.81685473      -9.82615494       0.00125380      -0.00357749       0.00999243
V        1.47900862       1.47305888      10.24487074      -9.30525397       0.00093152       0.00449836       0.00782234
V       -0.00646960       2.93108987      -0.00768383      -9.31103606       0.00778335       0.02349439      -0.00229518
V        1.47370467       4.41533314       1.45199139      -9.18204123      -0.01018310       0.00235475       0.01164230
V        1.46920743       4.47141509       4.39253446      -8.82490510      -0.00989514      -0.00064078      -0.00797650
V        0.05996440       2.87293570       5.77534373      -8.91089294       0.03847712      -0.02535915      -0.02097669
V        1.45965001       4.38425028       7.31106621      -8.97013803      -0.01016209      -0.01793403      -0.01599757
V        0.00216252       2.94302055       8.79839561      -9.36973491       0.00250082      -0.00665895       0.00543278
V        1.45557344       4.40667719      10.24935050      -9.08036138       0.00375558       0.00255160      -0.00074896
V        1.48837124       7.30558700       1.48613402      -9.54715936       0.00496229       0.00177002       0.01383908
V       -0.01242472       5.86658086       2.94558923      -8.99009638       0.00049840      -0.00170372       0.00072490
V       -0.01212119       5.85896676       5.87151649      -9.00757584       0.00249222      -0.00278254      -0.00657507
V        1.47080708       7.31702122       7.31922943      -9.05859423       0.00110571      -0.00119732       0.00475524
V       -0.00791128       5.85556010       8.76415695      -8.98731554       0.00033905      -0.00145713       0.00107174
V        1.46860710       7.30240389      10.24674935      -9.15868780       0.00322639       0.00384061       0.00617126
V        0.00268996       8.78530677       2.95023985      -9.33822565       0.02499089       0.08059601       0.02314136
V        1.48776108      10.15509963       4.42361642      -9.19420637       0.03838496      -0.03735112       0.03862953
V       -0.00513649       8.76831712       5.87154388      -9.38420266       0.00564268      -0.00352831       0.02918035
V        1.47209292      10.23278247       7.32860880      -9.24538398      -0.01050842       0.01204150      -0.00176881
V       -0.00920051       8.78395988       8.77573574      -9.51856457       0.00139523       0.00533710       0.00918064
V        1.47715428      10.24955321      10.23648860      -9.37796768      -0.00024355       0.01226861       0.00107572
V        2.94143536      -0.00255272      -0.01904389      -9.39337974       0.01796174       0.00420384       0.00170286
V        4.40142101       1.45465423       1.45477621      -9.12599720       0.00711689      -0.00859667       0.00896227
V        2.98088335       0.00119791       2.92348952      -9.23938144       0.00395357      -0.00039388      -0.00914650
V        4.45526658       1.45741738       4.37329750      -8.79974286       0.01567356      -0.00422832      -0.01145736
V        4.34864145       1.45550002       7.31350075      -8.94986732      -0.01809454      -0.00677628      -0.02189094
V        2.93274100      -0.00954736       8.78380765      -8.91814807      -0.01253551       0.00247589       0.00095024
V        4.38882866       1.45678111      10.24834653      -8.98549322       0.00233856       0.00244221      -0.00223577
V        2.94352241       2.92040105      -0.02387471      -9.02652393      -0.00027072      -0.00128928      -0.00799908
V        2.84479833       2.83771937       2.97587025      -8.90487058      -0.01430279      -0.02674717       0.03172288
V        4.38047323       4.37652711       4.38165827      -9.39881578      -0.00872183      -0.01212464      -0.01080544
V        4.37834488       4.40516299       7.31469661      -9.00258602      -0.00220476      -0.00301861      -0.00186428
V        2.92865536       2.93380891       8.78382012      -8.91384395      -0.00678275      -0.00547855      -0.00102084
V        4.39325832       4.38542676      10.23201211      -9.08213109       0.00124554       0.00118494      -0.00015293
V        2.94731158       5.84907840      -0.01897289      -9.16157125       0.00028475       0.00237326      -0.00126779
V        2.94582005       5.86247772       2.95491565      -9.59000670      -0.00464085       0.00487373       0.00283754
V        2.95059622       5.87489704       5.86391810      -9.35497612      -0.00446033       0.00003448      -0.00324196
V        4.39369173       7.31918860       7.34240657      -9.23417488       0.00054952       0.00066856      -0.00105945
V        2.92960708       5.85110904       8.77711954      -8.96552158      -0.00149521      -0.00143595      -0.00108382
V        4.39787929       7.32254093      10.23307797      -9.09685495       0.00154823       0.00334724       0.00232460
V        2.92953461       8.81055678      -0.01248858      -9.56851644       0.01738204      -0.00085555      -0.00229867
V        4.41776497      10.24749648       1.46275152      -9.37651264       0.02025036       0.00851687       0.00655661
V        2.95435575       8.78325619       2.94511931      -9.93755326       0.02500125       0.00205754       0.00327687
V        4.39840379      10.24577652       4.39728166      -9.34386350       0.00063412       0.01480191      -0.01323845
V        4.36589514      10.23456229       7.30274582      -9.02548729      -0.00989830       0.00615234      -0.01081057
V        2.91986437       8.78586839       8.78885022      -8.97485023      -0.00009100      -0.00064647       0.00045195
V        4.39456455      10.24855905      10.24251563      -9.03500218       0.00562834       0.00454963      -0.00338230
V        5.86055874      -0.00177748      -0.00813841      -8.92065508       0.00888691       0.00177565       0.00094170
V        7.31974438       1.45910427       1.45437458      -9.04940922       0.01175770       0.00099225       0.01420134
V        5.87122119      -0.01231890       2.91767606      -8.95516621       0.00280490       0.00196342      -0.00069182
V        7.30248968       1.46575823       4.36423924      -9.06000417       0.00865485      -0.00278269      -0.00311744
V        5.85510063      -0.00276362       5.87595156      -9.02436375       0.00200897       0.00410150      -0.01042503
V        5.86005764       0.01063727       8.77109685      -9.00893882      -0.00343371       0.00201266      -0.00518510
V        7.30227562       1.46200902      10.28047233      -9.21063055       0.00473101       0.00365846       0.00833413
V        5.85892815       2.92456135      -0.00555312      -9.03120769       0.00213811       0.00150475      -0.00107858
V        7.31642849       4.39064293       1.46199761      -9.09306204       0.00387272       0.00366708       0.00347303
V        5.85926791       2.93548151       2.91425389      -9.05716675       0.00666981      -0.00890569       0.00100201
V        7.29983363       4.41844116       4.37816760      -9.14981195       0.00024907       0.00532938       0.00144840
V        5.84918612       2.93110962       5.86971736      -9.10440864       0.00174805      -0.00734487      -0.00885262
V        7.30387035       4.43111192       7.32177318      -9.02342965      -0.00246979      -0.00028263      -0.00037891
V        5.85754470       2.91175018       8.77497928      -9.05880158      -0.00477694      -0.00515412      -0.00510541
V        7.31662660       4.39801517      10.25101040      -9.04490715       0.00121350       0.00274667       0.00349614
V        5.87154620       5.83852838      -0.01197654      -9.14639010      -0.00005427      -0.00161233       0.00566806
V        7.32270263       7.31985757       1.46942910      -9.16591598       0.00591004       0.00630578       0.00308609
V        5.85485332       5.85810778       2.94525978      -9.59488681       0.00306207      -0.00231535       0.00085209
V        7.32704631       7.32110368       4.39259447      -9.25891829       0.00533346       0.00553203       0.00381559
V        5.84343785       5.87144833       5.84260041      -9.46645963      -0.00104535      -0.00006873      -0.00252077
V        7.30756944       7.32139005       7.31775684      -9.07992538       0.00160978       0.00287899       0.00122913
V        5.85732589       5.85708076       8.78064871      -8.91671898      -0.00206263      -0.00028044      -0.00203541
V        7.31409393       7.31890994      10.24003516      -8.98406271       0.00422316       0.00304056       0.00310042
V        5.86723945       8.78888839      -0.01554099      -9.03293557       0.00936782       0.00318761       0.00315791
V        7.31920917      10.24688464       1.47061613      -8.97688814       0.01769364       0.02035419       0.02082177
V        5.86303429       8.77225679       2.94864355      -9.46909364       0.00823157       0.00388135       0.00144610
V        7.31159375      10.22569388       4.38778229      -9.04903872       0.00703012       0.01203558       0.00080646
V        5.83221792       8.75738084       5.84404997      -9.40325337       0.00043432      -0.00079312      -0.00116778
V        7.29211065      10.21082101       7.32014803      -9.20366320      -0.00150712       0.00261061       0.00435958
V        5.85520268       8.78118475       8.78260953      -8.93519602      -0.00253459       0.00568482      -0.00276267
V        7.30748953      10.23469737      10.25566325      -9.05388785       0.00487754       0.00351740       0.00653125
V        8.79052882      -0.00084370       0.01107826      -9.43059893      -0.00231387       0.00599235       0.00104136
V       10.28399604       1.45482590       1.51579822      -9.25793367      -0.02795814       0.06228940      -0.01795027
V        8.76961571       0.00291768       2.93201457      -8.80333466       0.06975424       0.02449499       0.02450821
V       10.17695853       1.47938957       4.40717391      -8.90307932      -0.03768325       0.04076656       0.04398398
V        8.75310389      -0.02598607       5.86695712      -9.53623376      -0.00752704       0.00624092       0.02373215
V        8.75327534      -0.01154777       8.80036214      -9.82793370       0.00089538      -0.00010100       0.01259946
V        8.77936653       2.91338346       0.00004537      -9.38691935       0.00044237       0.01850843       0.00034741
V       10.24467670       4.40917752       1.44148354      -9.02660356       0.01100298       0.01041028       0.00733107
V        8.77531500       2.94277820       2.91070303      -9.02586326       0.00301585       0.02054308       0.00910507
V       10.23365667       4.40489905       4.39948175      -9.05951668       0.01528011      -0.00132457      -0.01044635
V       10.25300863       4.39819301       7.31298756      -9.10969139       0.00105434      -0.00298672      -0.00225670
V        8.76031032       2.93655716       8.80362583      -9.51926726      -0.00355905       0.00035060       0.00615751
V       10.24637721       4.40609968      10.25166359      -9.25826571       0.00383172       0.00228664       0.00439550
V        8.76424053       5.85272406      -0.00855353      -8.98830715       0.00499127       0.00885185       0.00502268
V       10.23581045       7.30977043       1.46991841      -9.12373370       0.01300634       0.01290906       0.02139924
V        8.77117479       5.86111814       2.93671841      -8.98881668       0.00472500       0.00908182       0.00115986
V       10.23072896       7.33298216       4.40081824      -8.96678370       0.01550568       0.00403575       0.00407361
V        8.77358885       5.87109612       5.85424048      -9.06627267      -0.00224622       0.00179419       0.00112421
V       10.23294497       7.30769034       7.32149877      -9.22785743       0.00399423       0.00059044       0.00521617
V        8.77140014       5.86133817       8.77538890      -8.98976796       0.00438244      -0.00017665       0.00146472
V       10.23291106       7.30384882      10.23641892      -9.13526643       0.00575453       0.00662809       0.00913914
V        8.77823571       8.79715192       0.00477328      -9.04922572       0.01154898       0.00978175       0.01064930
V       10.25983221      10.29643503       1.52123140      -9.30118955       0.02749669       0.03085996       0.02738255
V       10.28086426      10.28535931       4.38673321      -9.30015239      -0.03459897      -0.03250926       0.06739305
V        8.77491773       8.77948870       5.85875763      -9.33170371      -0.00299703      -0.00348480       0.02029101
V        8.77319120       8.77764016       8.78266473      -9.40093554       0.00383258       0.00243111       0.00914071
V       10.22208283      10.24647822      10.24579331      -9.63186102       0.01327785       0.01657409       0.01170126
W        1.46541634      10.31141564       1.51927494      -7.02954756       0.09330079      -0.04646329      -0.04144333
W        4.41029550       7.31038509       4.42377201      -6.66612724       0.00476611       0.00229717      -0.00001168
W       10.23814175       1.46745102      10.26381816      -6.68002257       0.01105126       0.00234696       0.00909157
W       10.23889153      10.22550835       7.33241572      -6.67828691       0.00555874       0.00546978       0.01190887
Zr       0.00071524       5.85665660      -0.00208253      -7.99871181       0.00428442       0.01094683       0.00508182
Zr       7.27295580       1.44602684       7.34348556      -8.09399317      -0.00710033       0.00105695       0.00775892
