127
Lattice="11.70768973389371 -0.002250307332512871 -0.0019466255880301723 -0.002249862950098287 11.710222439864033 0.0004896967677449288 -0.0019465675636481234 0.0004893274348689812 11.712193634487997" Properties=species:S:1:pos:R:3:energies:R:1:forces:R:3 energy=-1139.2467467239617 free_energy=-1139.2467467239617 stress="-0.008322321784588345 0.0011335679843729068 0.001503683419267583 0.0011335679843729068 -0.008241443186151571 0.0011352351590280113 0.001503683419267583 0.0011352351590280113 -0.008398700184304764" pbc="T T T"
Cr       0.01187051       8.78869373       0.01750912      -7.61860577       0.00496932       0.00560374       0.00772980
Cr       4.41124084       4.37074643       1.44403079      -7.55585796       0.00298593       0.00364595      -0.01126032
Cr       4.42218834       7.32069443       1.43885166      -7.76791345       0.00113464       0.00234953       0.00204184
Cr       8.74352215       2.96039068       5.85448593      -7.23646532      -0.00712597      -0.00005144       0.00406027
Ti      -0.00127410       2.99415424       2.92159647      -7.84708269       0.00324978       0.01790342       0.00276723
Ti       1.46932971       7.31599915       4.40829956      -8.34487141       0.00022316      -0.00334282       0.00209379
Ti       2.84041631       0.04693140       5.77305777      -8.01940753      -0.00631837      -0.00249987      -0.00715662
Ti       2.86914044       2.89248371       5.79481489      -7.91275647      -0.02642476      -0.02387163      -0.03062826
Ti       2.94498170       8.74758061       5.87648413      -8.39158501       0.00091384      -0.00601169       0.00183537
Ti      10.25718904       1.47814931       7.32362576      -8.65744153      -0.00865105      -0.00367911       0.00769499
Ti       8.78482688       8.79942552       2.93401549      -8.01364966       0.00493939       0.00428317       0.00444783
V       -0.00129255       0.00109752      -0.05411504      -9.74950569       0.00888745       0.00401230      -0.00310213
V        1.47340161       1.48612307       1.38496924      -9.17135617       0.00878358       0.00645782      -0.01638051
V        0.75093521       0.73749748       3.68060426      -8.58969103      -0.01762100      -0.01664155      -0.01320891
V        0.00060972      -0.04122063       5.92146325      -9.26091939      -0.00795885      -0.00082792       0.02134180
V        1.44394740       1.46186921       7.38668528      -8.87728433      -0.01082852      -0.00816817       0.00374380
V        0.00139947      -0.02059788       8.81168213      -9.83195437       0.00017472      -0.00199959       0.00665683
V        1.48122172       1.47521414      10.24237475      -9.29892058       0.00112587       0.00363253      -0.00335689
V       -0.00596622       2.92237837      -0.00679776      -9.31397799       0.00491118       0.00299794      -0.00109181
V        1.47346875       4.41406092       1.44688265      -9.17995770      -0.00082722       0.00429474      -0.00439554
V        1.46414089       4.46664628       4.38823381      -8.82677771      -0.00917092       0.00099002      -0.00872960
V        0.04043221       2.88418628       5.78398698      -8.98474268      -0.00923612      -0.00153045       0.00100645
V        1.46041166       4.38653303       7.31336667      -8.96758289      -0.00795766      -0.01014726      -0.00902826
V        0.00149323       2.94399749       8.79772332      -9.37310059      -0.00278063      -0.00412847       0.00173678
V        1.45569153       4.40576853      10.24915486      -9.08404818       0.00202930       0.00120267      -0.00423237
V        1.48995058       7.30495926       1.48457345      -9.52454647       0.00316012       0.00206118       0.00538647
V       -0.01188631       5.86220102       2.94604316      -8.99955116       0.00018282       0.00214292       0.00050491
V       -0.01267703       5.85795127       5.87188565      -9.01119318      -0.00247852      -0.00216506      -0.00329428
V        1.47128589       7.31675356       7.31774710      -9.06209860       0.00044144      -0.00415971       0.00134426
V       -0.00774055       5.85523931       8.76357237      -8.98775237      -0.00053482      -0.00310840      -0.00179224
V        1.46832420       7.30275954      10.24673640      -9.15495155       0.00169331       0.00240238       0.00300864
V       -0.00434239       8.74587010       2.94559028      -9.31900652       0.00694462      -0.00042144       0.00785231
V        1.47338825      10.15581945       4.41167109      -9.22707876       0.00818380      -0.01889206       0.00995594
V       -0.00486809       8.76893879       5.86302821      -9.38504652       0.00417512      -0.00362443       0.00714558
V        1.47233483      10.22631294       7.32838243      -9.24226845      -0.00342332      -0.00244362       0.00125955
V       -0.00903642       8.78170831       8.77373978      -9.51353047       0.00025577      -0.00018270       0.00412839
V        1.47863142      10.24762890      10.23556872      -9.35421995       0.00035631       0.00449148       0.00047458
V        2.93314939      -0.00090166      -0.01923180      -9.38673544       0.00152404       0.00290208      -0.00225429
V        4.40188290       1.45537568       1.44774220      -9.12205338       0.00784753      -0.00107708      -0.00707229
V        2.99651148      -0.00192703       2.92127513      -9.22144995       0.01740933      -0.00186303      -0.00673221
V        4.45303205       1.45397594       4.36867608      -8.80691531       0.00985765      -0.00833384      -0.01287355
V        4.35075832       1.45610023       7.31612942      -8.94622968      -0.01016660      -0.00554196      -0.01251377
V        2.93345186      -0.00999359       8.78151438      -8.92140928      -0.00689344      -0.00169349      -0.00286433
V        4.38774540       1.45704011      10.24792811      -8.98921480      -0.00031280       0.00084772      -0.00547042
V        2.94093045       2.91830930      -0.02324137      -9.03412839       0.00190893       0.00204780      -0.00879471
V        2.85287469       2.84999532       2.95709767      -8.98231141       0.00446399       0.00080777      -0.01189350
V        4.38245272       4.37847650       4.38224127      -9.39658087      -0.00499706      -0.00615596      -0.00899155
V        4.37719624       4.40423247       7.31355762      -9.00361462      -0.00813605      -0.00724053      -0.00811229
V        2.92701887       2.93235844       8.78210577      -8.91032806      -0.00823137      -0.00647531      -0.00806502
V        4.39302705       4.38522779      10.23107523      -9.08265162      -0.00138987      -0.00041490      -0.00532551
V        2.94707965       5.84860825      -0.01901275      -9.15994772      -0.00202530       0.00160463      -0.00066668
V        2.94626335       5.86127653       2.95385563      -9.59384995      -0.00288975       0.00289475      -0.00163972
V        2.94909270       5.87280225       5.86272256      -9.35135291      -0.00645818      -0.00675296      -0.00620710
V        4.39343397       7.31819556       7.34199203      -9.23529322      -0.00190271      -0.00371797      -0.00303645
V        2.93029983       5.85129278       8.77719774      -8.96470096      -0.00130867      -0.00297992      -0.00351035
V        4.39749731       7.32257998      10.23293676      -9.09701043      -0.00025616       0.00287573       0.00101053
V        2.92588178       8.81364865      -0.01063162      -9.54860935       0.00335112       0.00424754       0.00172883
V        4.41187119      10.24647042       1.46113799      -9.35059170       0.00380000       0.00308121       0.00091352
V        2.94617517       8.78343123       2.94703574      -9.93010777       0.00515447      -0.00049309       0.00369494
V        4.39837858      10.23925893       4.39828362      -9.34328270       0.00247218      -0.00120332      -0.00369107
V        4.36767364      10.23057518       7.30452140      -9.02662435      -0.00332376      -0.00390892      -0.00406464
V        2.91972371       8.78583140       8.78815174      -8.97333784      -0.00169462      -0.00024743      -0.00045219
V        4.39356096      10.24911336      10.24288737      -9.02983080       0.00022822       0.00245739      -0.00196092
V        5.85926759      -0.00173146      -0.01023693      -8.91596116       0.00392595       0.00072714      -0.00207958
V        7.31675577       1.46196558       1.45169702      -9.03895891       0.00521866       0.00210762       0.00395401
V        5.86818569      -0.01226689       2.91742302      -8.96534380       0.00432731      -0.00062615      -0.00230618
V        7.29798995       1.46914714       4.36754114      -9.05535201      -0.00217332       0.00036743       0.00043178
V        5.85362765      -0.00363664       5.87616367      -9.02663847      -0.00056260      -0.00292679      -0.00650830
V        5.85946566       0.01069223       8.77051567      -9.00995966      -0.00457414       0.00101578      -0.00591489
V        7.30206677       1.46188597      10.27991375      -9.21289116       0.00219714       0.00195446       0.00412543
V        5.85829139       2.92466880      -0.00639119      -9.02891491       0.00161544      -0.00018647      -0.00199809
V        7.31652426       4.39052960       1.46239528      -9.09550515       0.00387193       0.00016735       0.00147968
V        5.85863517       2.93614814       2.91327812      -9.05953829       0.00461355      -0.00392827      -0.00457382
V        7.29986059       4.41743409       4.37845737      -9.15303055      -0.00104658       0.00152053      -0.00003598
V        5.84689878       2.92965717       5.86867212      -9.10097756      -0.00570151      -0.00679542      -0.00857849
V        7.30277082       4.43084953       7.32125168      -9.02507098      -0.00548030      -0.00251188      -0.00289760
V        5.85736176       2.91226899       8.77500273      -9.05781464      -0.00556486      -0.00347641      -0.00629978
V        7.31659730       4.39772533      10.25117648      -9.04594569       0.00060189       0.00107648       0.00196209
V        5.87093729       5.83877951      -0.01213913      -9.14640119       0.00026488       0.00059995       0.00169276
V        7.32212816       7.31864200       1.46984597      -9.16847849       0.00239685       0.00301744       0.00149724
V        5.85405019       5.85795223       2.94469276      -9.59581730      -0.00007830      -0.00210070      -0.00052987
V        7.32662422       7.32060139       4.39226852      -9.25943495       0.00221090       0.00195922       0.00151346
V        5.84327051       5.87138698       5.84311118      -9.46477031      -0.00404841      -0.00221620      -0.00332307
V        7.30732131       7.32150528       7.31717045      -9.08019585       0.00002455       0.00152115      -0.00028371
V        5.85712243       5.85694721       8.78064199      -8.91762989      -0.00246920      -0.00102372      -0.00256675
V        7.31374466       7.31837311      10.23969446      -8.98308209       0.00112824       0.00085575       0.00129183
V        5.86540497       8.78841508      -0.01584439      -9.03221943       0.00253510       0.00306803       0.00260608
V        7.31464338      10.24180553       1.46520135      -8.97325676       0.00550089       0.00682952       0.00622491
V        5.86155416       8.77061050       2.94842685      -9.46497549       0.00306082       0.00107257       0.00023303
V        7.30906586      10.22323411       4.39006415      -9.03869213       0.00081610       0.00350955       0.00155762
V        5.83157140       8.75741910       5.84406041      -9.40124683      -0.00100410      -0.00047859      -0.00256581
V        7.29203075      10.21089843       7.32002295      -9.20703624      -0.00106664       0.00081823       0.00120059
V        5.85479062       8.78055105       8.78257543      -8.93503495      -0.00238793       0.00229850      -0.00168100
V        7.30652985      10.23526255      10.25478056      -9.05631738       0.00167836       0.00126017       0.00283225
V        8.79578088      -0.00040612       0.01547984      -9.43302314       0.00720778       0.00381763       0.00787836
V       10.30456944       1.42189471       1.53196056      -9.21808437       0.01147141       0.00238461       0.01161822
V        8.73415012      -0.00357675       2.92687854      -8.77334001       0.00034776       0.00627380       0.00946367
V       10.17957091       1.46514285       4.39225627      -8.92204540      -0.01821092       0.01018371       0.01043948
V        8.75567435      -0.02521201       5.85910237      -9.53799910      -0.00544847       0.00249904       0.00523764
V        8.75120750      -0.01122144       8.79826982      -9.82403081      -0.00204860      -0.00069865       0.00598091
V        8.78266698       2.90968855       0.00326371      -9.38946734       0.00556982       0.00368001       0.00555830
V       10.24361310       4.40575140       1.44092033      -9.01758680       0.00513929      -0.00050334       0.00384161
V        8.77597581       2.93466270       2.91090759      -9.02849509       0.00146847       0.00291823       0.00325463
V       10.22865026       4.40264516       4.39932375      -9.05738780      -0.00178429      -0.00065737      -0.00189056
V       10.24897918       4.39956219       7.31414086      -9.10979879      -0.00825343      -0.00009638      -0.00018445
V        8.75965490       2.93669328       8.80259945      -9.51979661      -0.00221650      -0.00162786       0.00247982
V       10.24674185       4.40593944      10.25126664      -9.26158348       0.00153861       0.00006912       0.00280008
V        8.76438056       5.85104450      -0.00872075      -8.98711409       0.00392146       0.00233696       0.00394619
V       10.23236811       7.30694303       1.46612011      -9.12117844       0.00462682       0.00429184       0.00863059
V        8.76991748       5.85867435       2.93690813      -8.98547220       0.00141979       0.00228195       0.00041330
V       10.22811066       7.33095877       4.40257530      -8.95682831       0.00478408      -0.00038180       0.00471971
V        8.77314676       5.87072614       5.85408075      -9.06486810      -0.00125955      -0.00030318      -0.00138119
V       10.23313071       7.30757302       7.32126516      -9.23059327       0.00116007      -0.00001451       0.00179514
V        8.77068324       5.86125073       8.77513558      -8.98898406       0.00071256      -0.00066806       0.00077347
V       10.23338623       7.30326815      10.23603704      -9.13832356       0.00243889       0.00285388       0.00437371
V        8.77649158       8.79511120       0.00328648      -9.04707811       0.00582972       0.00394424       0.00569710
V       10.25468905      10.28990526       1.51723166      -9.24221403       0.01073173       0.00897667       0.01107402
V       10.30163247      10.30360793       4.35576226      -9.26316308       0.00308616       0.00167377       0.00881440
V        8.77739201       8.78238759       5.85520906      -9.33484983       0.00103290       0.00101169       0.00602655
V        8.77271718       8.77736721       8.78125347      -9.39997030       0.00253422       0.00213789       0.00335690
V       10.21842989      10.24238522      10.24318337      -9.62663335       0.00426436       0.00647760       0.00551158
W        1.42309148      10.33683033       1.54391451      -7.08363187       0.00812071       0.00528778       0.00568422
W        4.40878285       7.31023568       4.42359942      -6.66800986       0.00066260      -0.00094620      -0.00087575
W       10.23616355       1.46972027      10.26019958      -6.66867386       0.00213944       0.00244505       0.00276219
W       10.23704995      10.22379659       7.33026321      -6.67390544      -0.00239946      -0.00079837       0.00632275
Zr       0.00097324       5.85573774      -0.00533612      -7.99334082       0.00179598       0.00564099      -0.00008458
Zr       7.27322140       1.44596279       7.34211091      -8.09792062      -0.00662899      -0.00020834       0.00378720
