127
Lattice="11.70768973389371 -0.002250307332512871 -0.0019466255880301723 -0.002249862950098287 11.710222439864033 0.0004896967677449288 -0.0019465675636481234 0.0004893274348689812 11.712193634487997" Properties=species:S:1:pos:R:3:energies:R:1:forces:R:3 energy=-1139.367897497845 free_energy=-1139.367897497845 stress="-0.007188991296055548 0.0013387805257994646 0.0014087945981455428 0.0013387805257994646 -0.006964744130886183 0.0012557573911394818 0.0014087945981455428 0.0012557573911394818 -0.007226956055601672" pbc="T T T"
Cr       0.01297195       8.78941491       0.01803136      -7.61690113       0.00446747       0.00695652       0.00951574
Cr       4.41277069       4.37114613       1.44145070      -7.55210586       0.00392859       0.00311782      -0.01805556
Cr       4.42172959       7.32049054       1.43876475      -7.76950630      -0.00117580       0.00209270       0.00014276
Cr       8.74259572       2.95778786       5.85224998      -7.24448983      -0.01323782      -0.00267530       0.00204888
Ti      -0.01140328       2.99773577       2.91041399      -7.82237485      -0.01458331       0.02350244      -0.01682236
Ti       1.46991340       7.31305457       4.40795913      -8.33974434       0.00041921      -0.00679704       0.00035674
Ti       2.86929800       0.01021616       5.80105968      -8.01891223       0.03887601      -0.05936189       0.03640958
Ti       2.85801073       2.88075505       5.78244101      -7.97575492      -0.04194476      -0.04021042      -0.04692568
Ti       2.94199034       8.74693525       5.87395013      -8.40186439      -0.00251208      -0.01141940      -0.00098807
Ti      10.25190024       1.47729034       7.32525698      -8.64859373      -0.01778403      -0.00457811       0.00673003
Ti       8.78547073       8.80027463       2.93564926      -8.01252061       0.00671709       0.00632965       0.00523118
V       -0.00526271      -0.00197613      -0.05905011      -9.75538010       0.00154185      -0.00071980      -0.01525654
V        1.46806277       1.47983655       1.39719083      -9.18394753       0.00182372      -0.00123499       0.00380101
V        0.97505935       0.96704816       3.90908137      -8.63349670       0.31635796       0.32531204       0.32613812
V       -0.00078694      -0.04435408       5.92178291      -9.24348151      -0.00927034      -0.00602503       0.01855205
V        1.44070525       1.45410059       7.35852568      -8.89993602      -0.01505913      -0.02052101      -0.04542730
V        0.00362649      -0.01848875       8.80799400      -9.83425978       0.00223890       0.00031533      -0.00069026
V        1.48102971       1.47471422      10.24058332      -9.29285487       0.00008059       0.00191448      -0.00524237
V       -0.00430786       2.91678427      -0.00610792      -9.31726164       0.00761662      -0.00711399      -0.00098191
V        1.47225628       4.41545621       1.43884139      -9.17753876      -0.00248626       0.00610637      -0.01974178
V        1.45728178       4.43834978       4.38286422      -8.84016440      -0.02027779      -0.04718230      -0.01814409
V        0.01099338       2.90185108       5.80271024      -9.02874061      -0.05286775       0.02377797       0.02708344
V        1.46047928       4.39006901       7.31764490      -8.96352929      -0.01001489      -0.00477197      -0.00256403
V        0.00328947       2.94090639       8.79507117      -9.38296488      -0.00274287      -0.00995114      -0.00444227
V        1.45575544       4.40349323      10.24708540      -9.08867128       0.00058519      -0.00282267      -0.01038023
V        1.48935355       7.30471819       1.48595685      -9.52085796       0.00029945       0.00265560       0.00657688
V       -0.00946573       5.85899998       2.94839867      -9.00394112       0.00235471      -0.00283391       0.00248455
V       -0.01083469       5.85637891       5.86920646      -9.01921301      -0.00260340      -0.00539361      -0.00860426
V        1.47168225       7.31552308       7.31505517      -9.06627462      -0.00052859      -0.00865087      -0.00278778
V       -0.00780893       5.85528812       8.76307855      -8.98614316      -0.00218346      -0.00419137      -0.00368911
V        1.46843328       7.30277226      10.24608398      -9.15169958       0.00027958       0.00207522       0.00144501
V       -0.00693760       8.73933113       2.94415955      -9.32099169       0.00182485      -0.01400256       0.00645383
V        1.46704270      10.17133661       4.40513549      -9.24698017      -0.00032167       0.00703979       0.00172774
V       -0.00229493       8.77064580       5.85613090      -9.38574561       0.00895436      -0.00065299      -0.00483432
V        1.47226458      10.22016244       7.32766871      -9.24083755      -0.00164049      -0.01543260       0.00025213
V       -0.00892495       8.78122776       8.77257084      -9.51088268      -0.00048675      -0.00206457       0.00157434
V        1.47713196      10.24921406      10.23490392      -9.34986016      -0.00310689       0.00603002       0.00045890
V        2.92789893       0.00119344      -0.01886995      -9.38357981      -0.00844733       0.00805466      -0.00108757
V        4.40154672       1.45359753       1.44167824      -9.11875810       0.00585829      -0.00309063      -0.01805516
V        2.99897691      -0.00678179       2.91964113      -9.20381206       0.02066157      -0.00876858      -0.00725316
V        4.42638086       1.44617949       4.36555006      -8.82937786      -0.03571807      -0.02037850      -0.01653363
V        4.35296268       1.45510385       7.31930524      -8.94238644      -0.00527086      -0.00967697      -0.00660783
V        2.93100978      -0.00840198       8.77932399      -8.93135902      -0.01116086      -0.00212301      -0.00650579
V        4.38568216       1.45745621      10.24636131      -8.99293903      -0.00400782       0.00011314      -0.00979836
V        2.93864290       2.91614740      -0.02361320      -9.04392301      -0.00145158      -0.00035108      -0.01253549
V        2.87123124       2.86847431       2.92829149      -9.02576467       0.02955102       0.02707420      -0.05294237
V        4.38549895       4.38084942       4.38189134      -9.39340891      -0.00036004      -0.00287406      -0.01153466
V        4.37506220       4.40220635       7.31153403      -9.00470240      -0.01218097      -0.01129913      -0.01189752
V        2.92218618       2.92753293       8.77769915      -8.91108809      -0.01640481      -0.01512579      -0.01740153
V        4.39225287       4.38424381      10.22921485      -9.08377050      -0.00279801      -0.00199074      -0.01067869
V        2.94697857       5.84816625      -0.01943275      -9.15842190      -0.00328996       0.00184424      -0.00371609
V        2.94400449       5.85829491       2.95513278      -9.60273956      -0.00800824      -0.00297854      -0.00260892
V        2.94486776       5.86795523       5.85879380      -9.35263487      -0.01415964      -0.01674527      -0.01363941
V        4.39278552       7.31621601       7.34128950      -9.23718068      -0.00293746      -0.01023784      -0.00433826
V        2.93072069       5.85031569       8.77592155      -8.96234960      -0.00248479      -0.00618286      -0.00668523
V        4.39686664       7.32235039      10.23253401      -9.09730263      -0.00222486       0.00183416      -0.00015664
V        2.92316186       8.81472345      -0.01009288      -9.54144577      -0.00371074       0.00716418       0.00413570
V        4.40935690      10.24583682       1.46059033      -9.33930509      -0.00436676       0.00353843       0.00214046
V        2.94042546       8.78362174       2.95005980      -9.92581834      -0.00581963       0.00069991       0.01057704
V        4.39736851      10.23350096       4.39839052      -9.34362470       0.00099160      -0.01371442      -0.00174828
V        4.37108332      10.22612606       7.30804677      -9.02799931       0.00307032      -0.01544433       0.00234364
V        2.91973075       8.78577521       8.78747697      -8.97316975      -0.00278099      -0.00311498      -0.00046372
V        4.39279437      10.24914023      10.24327952      -9.02861429      -0.00187419       0.00036174      -0.00062082
V        5.85880286      -0.00187946      -0.01110125      -8.91326411       0.00218721      -0.00075067      -0.00368677
V        7.31585829       1.46120324       1.45272449      -9.03671729       0.00358744      -0.00080921       0.00402370
V        5.86430949      -0.01019435       2.91999988      -8.96949213      -0.00217819       0.00097688       0.00031378
V        7.29506877       1.46950015       4.36750564      -9.04804902      -0.00595653       0.00029605      -0.00052353
V        5.85157609      -0.00265989       5.87353596      -9.03638772      -0.00353943      -0.00390545      -0.01127262
V        5.85897867       0.01040865       8.76987203      -9.00895070      -0.00492478      -0.00102024      -0.00733033
V        7.30129195       1.46186180      10.27896923      -9.21100580      -0.00019623       0.00061188       0.00146212
V        5.85795714       2.92429101      -0.00684504      -9.02708456       0.00123739      -0.00182268      -0.00504265
V        7.31586722       4.39013341       1.46255249      -9.09734594       0.00207555      -0.00081939      -0.00051618
V        5.85513634       2.93344338       2.91501368      -9.07015500      -0.00238015      -0.00952120      -0.00433865
V        7.29810300       4.41546984       4.37897952      -9.15728147      -0.00601453      -0.00244314      -0.00162411
V        5.84169393       2.92498519       5.86441263      -9.10224167      -0.01573672      -0.01508726      -0.01691872
V        7.30085800       4.43006725       7.32023721      -9.02737514      -0.01138558      -0.00339949      -0.00430333
V        5.85620774       2.91244287       8.77362294      -9.05551392      -0.00812284      -0.00467843      -0.00955052
V        7.31641217       4.39697710      10.25103107      -9.04615486      -0.00057157      -0.00079318       0.00054536
V        5.87064780       5.83860448      -0.01252625      -9.14628639      -0.00084247       0.00028496      -0.00064427
V        7.32187719       7.31813283       1.47020311      -9.16817800       0.00067633       0.00150460       0.00054299
V        5.85345981       5.85730409       2.94436320      -9.59426026      -0.00246690      -0.00373612      -0.00325950
V        7.32594886       7.32038950       4.39237437      -9.25752174       0.00025616       0.00069088       0.00005342
V        5.84192650       5.87026620       5.84353634      -9.46195344      -0.00715035      -0.00582899      -0.00438866
V        7.30706446       7.32158506       7.31644195      -9.08041976      -0.00076792       0.00090018      -0.00263099
V        5.85670692       5.85635968       8.78028371      -8.91894610      -0.00401408      -0.00317150      -0.00466334
V        7.31350870       7.31804643      10.23942816      -8.98231603      -0.00027904      -0.00064311      -0.00029063
V        5.86420621       8.78817652      -0.01589215      -9.03225732      -0.00151797       0.00236264       0.00230008
V        7.31099804      10.24114926       1.46431312      -8.97706116      -0.00152278       0.00344861       0.00240603
V        5.86077814       8.77025096       2.94833690      -9.46170989       0.00106634      -0.00074084      -0.00123202
V        7.30909535      10.22415751       4.38882256      -9.03396528       0.00149431       0.00342832      -0.00226587
V        5.83135343       8.75773934       5.84428695      -9.39936614      -0.00030562      -0.00293981      -0.00309225
V        7.29249704      10.21088869       7.31954068      -9.20967555       0.00047196      -0.00127721      -0.00020606
V        5.85477876       8.78004349       8.78250560      -8.93492515      -0.00229261      -0.00071890      -0.00157332
V        7.30625080      10.23596713      10.25423915      -9.05641176       0.00036633       0.00042426       0.00092299
V        8.79723471       0.00097996       0.01645693      -9.43379821       0.00966102       0.00482155       0.00987370
V       10.30906189       1.40682152       1.53578105      -9.15842210       0.02426410      -0.02719561       0.02214736
V        8.72840332      -0.00684502       2.92311390      -8.77014230      -0.01058485       0.00087153       0.00320296
V       10.19175919       1.45509430       4.38124012      -8.93387729       0.00246645      -0.00463589      -0.00585707
V        8.75717273      -0.02296191       5.85378178      -9.53725470      -0.00209234       0.00639963      -0.00522520
V        8.75085953      -0.01107402       8.79739826      -9.82153325      -0.00296678      -0.00154497       0.00322685
V        8.78424449       2.90631949       0.00459716      -9.38954841       0.00827096      -0.00419942       0.00798184
V       10.24198268       4.40550343       1.43972592      -9.01287647       0.00360340      -0.00378230       0.00286448
V        8.77507824       2.92990758       2.91219711      -9.02965926       0.00011519      -0.00617265       0.00565210
V       10.22045398       4.40372890       4.39849696      -9.05389144      -0.01744051       0.00024421      -0.00262529
V       10.24448775       4.40201193       7.31702261      -9.10814119      -0.01853662       0.00288701       0.00294343
V        8.75943765       2.93648537       8.80225554      -9.51809382      -0.00430798      -0.00290988       0.00180710
V       10.24712069       4.40569485      10.25068694      -9.26325170      -0.00001444      -0.00066101       0.00085847
V        8.76438619       5.85005635      -0.00874013      -8.98682623       0.00296870      -0.00079336       0.00290412
V       10.23302304       7.30644176       1.46598730      -9.12704146       0.00366209       0.00257397       0.00567279
V        8.76909246       5.85853095       2.93691834      -8.98325202      -0.00140262       0.00104112      -0.00112065
V       10.22925601       7.33141575       4.40150495      -8.95350912       0.00431662       0.00060635       0.00132604
V        8.77245798       5.87116157       5.85406584      -9.06347304      -0.00493322       0.00096650      -0.00289269
V       10.23346919       7.30793296       7.32049600      -9.23305469      -0.00029758       0.00073343      -0.00021554
V        8.77006350       5.86128719       8.77493496      -8.98835833      -0.00197325      -0.00109118      -0.00025797
V       10.23387028       7.30301943      10.23579673      -9.13869639       0.00199380       0.00171383       0.00271398
V        8.77445399       8.79327547       0.00134234      -9.04436038       0.00099795      -0.00059219       0.00100803
V       10.23980189      10.27481113       1.50552040      -9.22834203      -0.01662342      -0.01680272      -0.01008851
V       10.31315615      10.31416735       4.33945923      -9.20451443       0.02657189       0.02276043      -0.02177216
V        8.77952357       8.78459736       5.85163742      -9.33622514       0.00554883       0.00514354      -0.00201171
V        8.77282777       8.77751116       8.78009058      -9.40032583       0.00249024       0.00162611      -0.00030349
V       10.21906312      10.24224017      10.24163273      -9.63190469       0.00340297       0.00407656       0.00217548
W        1.40316173      10.34317112       1.55124107      -7.08188011      -0.03311444       0.02174256       0.02373924
W        4.40613920       7.30883889       4.42359312      -6.67233455      -0.00393625      -0.00553931      -0.00264698
W       10.23819107       1.46851770      10.25897034      -6.66992006       0.00336000      -0.00063565      -0.00006719
W       10.23609826      10.22286543       7.32917753      -6.67479177      -0.00246240      -0.00163625       0.00245952
Zr       0.00080750       5.85594238      -0.00701766      -7.99060903       0.00026789       0.00589903      -0.00439973
Zr       7.27271164       1.44616284       7.33990988      -8.10181544      -0.00874140      -0.00194373      -0.00008212
