127
Lattice="12.093483239 -0.001965245 -0.001402732 -0.001967216 12.088895931 0.017572922 -0.001397384 0.01757218 12.092468779" Properties=species:S:1:pos:R:3:forces:R:3 stress="0.00532750877099804 -0.0008692737004891391 0.0014628973919427698 -0.0008692737004891391 0.004435235109380021 -0.0003751771135568426 0.0014628973919427698 -0.0003751771135568426 0.004618610647498471" free_energy=-1142.68129236 energy=-1142.66403931 pbc="T T T"
Cr       0.01699000       9.07337000      12.09016000      -0.00003600      -0.00003200      -0.00000700
Cr       4.61102000       4.53856000       1.48537000      -0.00021200      -0.00025400       0.00024500
Cr       4.56656000       7.56371000       1.45527000      -0.00002100       0.00002200       0.00026400
Cr       9.08295000       3.15999000       5.98439000      -0.00000000       0.00026200      -0.00022200
Ti       0.27984000       2.74355000       3.34808000       0.00035900      -0.00021300       0.00022900
Ti       1.47879000       7.53098000       4.50818000       0.00023400       0.00023700       0.00007300
Ti       2.82877000       0.17395000       5.86629000       0.00026300       0.00048500      -0.00041000
Ti       2.83157000       2.97900000       5.87432000       0.00004300       0.00052400      -0.00028700
Ti       3.02800000       9.16711000       6.11261000       0.00023100       0.00008500       0.00011200
Ti      10.54791000       1.56898000       7.54931000       0.00004300      -0.00017400      -0.00003000
Ti       9.04508000       9.06508000       3.04384000      -0.00029600       0.00034600      -0.00027500
V        0.01331000      12.06720000       0.05650000       0.00048900      -0.00119900      -0.00005600
V        1.58069000       1.47911000       1.41622000      -0.00008000      -0.00032300       0.00013200
V        0.04528000       0.00753000       3.12276000      -0.00013400      -0.00014800      -0.00058600
V        0.03875000       0.11072000       5.96382000       0.00023700       0.00066000      -0.00045600
V        1.41089000       1.54407000       7.74341000       0.00009100       0.00022600      -0.00041600
V        0.00260000      12.06705000       9.13046000       0.00012000       0.00001500      -0.00055800
V        1.54373000       1.49565000      10.62505000       0.00001000       0.00000800      -0.00047000
V        0.03782000       2.93208000       0.09416000       0.00026500      -0.00046600      -0.00000100
V        1.66673000       4.40761000       1.63123000       0.00028600      -0.00037400       0.00044100
V        1.51030000       4.74572000       4.54881000       0.00011300      -0.00018100       0.00029400
V        0.05122000       3.01026000       6.07627000       0.00012800       0.00046900      -0.00011900
V        1.46815000       4.59049000       7.58387000       0.00042200       0.00041000       0.00011600
V        0.00946000       3.08852000       9.12545000       0.00025400      -0.00012200      -0.00013700
V        1.65656000       4.45900000      10.51652000       0.00023300      -0.00026000       0.00021400
V        1.56503000       7.59439000       1.51242000       0.00000500      -0.00028400       0.00022600
V       12.06732000       5.94059000       3.02252000       0.00027800      -0.00041800       0.00065500
V       12.03511000       6.03058000       6.14003000       0.00033500       0.00010100       0.00058000
V        1.47188000       7.56420000       7.61845000       0.00041100       0.00054700       0.00012100
V       12.09111000       6.08379000       9.06051000       0.00020300       0.00005200       0.00029000
V        1.57696000       7.64952000      10.57305000      -0.00012500      -0.00019400       0.00030200
V       12.01690000       9.09845000       3.01194000      -0.00008800       0.00002200       0.00000300
V        1.40935000      10.47490000       4.49313000      -0.00004700       0.00074400      -0.00037000
V       12.05053000       9.10526000       6.09590000       0.00014700       0.00063400       0.00022600
V        1.44187000      10.64979000       7.61777000       0.00021800       0.00062400      -0.00022000
V       12.08651000       9.06401000       9.08694000       0.00019200       0.00026600      -0.00017800
V        1.49771000      10.56912000      10.60422000      -0.00002400       0.00004200      -0.00048500
V        3.05996000      12.09818000      12.09974000       0.00008900      -0.00007400      -0.00026300
V        4.56449000       1.50936000       1.47174000      -0.00049000      -0.00037100      -0.00015000
V        2.97515000       0.11077000       3.02171000      -0.00033000       0.00017600      -0.00022500
V        4.69404000       1.57364000       4.42185000      -0.00054800       0.00023400      -0.00030400
V        4.45167000       1.57539000       7.56486000       0.00007900       0.00032300      -0.00026000
V        2.98309000       0.03479000       9.07321000       0.00017200       0.00028300      -0.00038600
V        4.52468000       1.53117000      10.59266000       0.00001700      -0.00020800      -0.00028600
V        3.10758000       3.04042000       0.03176000       0.00012700      -0.00038800      -0.00012400
V        3.10642000       3.02822000       3.00859000      -0.00019400       0.00013700      -0.00017400
V        4.56394000       4.56631000       4.50215000      -0.00016700       0.00032300       0.00029100
V        4.51814000       4.57041000       7.53519000       0.00035700       0.00053900       0.00018300
V        3.00052000       3.04901000       9.06488000       0.00042000       0.00016400      -0.00016100
V        4.54989000       4.57075000      10.56750000       0.00025200      -0.00025400       0.00001700
V        3.15884000       6.04615000       0.02461000       0.00020900      -0.00036100       0.00040100
V        3.14864000       6.03370000       2.92151000       0.00004600       0.00016800       0.00059400
V        3.06497000       6.05084000       6.09809000       0.00033100       0.00049400       0.00037400
V        4.55861000       7.54693000       7.60757000       0.00030900       0.00044700       0.00023100
V        3.02478000       6.07675000       9.06625000       0.00054500       0.00034500       0.00023300
V        4.55694000       7.58715000      10.54540000       0.00025100      -0.00018300       0.00005900
V        3.08954000       9.04091000      12.07663000       0.00032800      -0.00031700      -0.00015400
V        4.56807000      10.60457000       1.47951000      -0.00017100       0.00021900      -0.00012500
V        3.10167000       9.07550000       2.95739000       0.00054700      -0.00015200       0.00057500
V        4.52912000      10.66928000       4.40627000      -0.00020500       0.00079500      -0.00030200
V        4.53659000      10.68922000       7.62871000       0.00045000       0.00058300      -0.00016100
V        3.01269000       9.11489000       9.05898000       0.00048000       0.00024500       0.00003700
V        4.49943000      10.59483000      10.59102000       0.00020600       0.00010600      -0.00043100
V        6.05583000       0.02370000      12.08011000      -0.00007800      -0.00016300      -0.00018200
V        7.57123000       1.50097000       1.50455000      -0.00051000      -0.00062700      -0.00027000
V        6.05559000       0.02648000       2.95652000      -0.00055900       0.00017700      -0.00036300
V        7.54831000       1.56533000       4.46966000      -0.00040700      -0.00009100      -0.00030700
V        5.90654000      12.04817000       5.96774000      -0.00024300       0.00059300      -0.00044500
V        5.94637000      12.04603000       9.14345000      -0.00006700       0.00020800      -0.00019700
V        7.51070000       1.51159000      10.64295000      -0.00001800      -0.00062500      -0.00034400
V        6.05608000       3.04944000       0.02451000      -0.00013800      -0.00048100       0.00003500
V        7.60182000       4.52837000       1.53178000      -0.00026700      -0.00070700       0.00023800
V        6.05176000       3.09871000       2.92993000      -0.00031700      -0.00001600      -0.00000000
V        7.59735000       4.53024000       4.55090000      -0.00037100       0.00005900       0.00038000
V        5.93363000       3.14635000       5.94328000      -0.00027900       0.00028800      -0.00035000
V        7.55187000       4.60147000       7.53009000       0.00007700       0.00037600       0.00028200
V        5.93968000       3.14889000       9.15536000      -0.00011100       0.00010600      -0.00008500
V        7.52525000       4.57910000      10.59911000       0.00017800      -0.00040800       0.00015400
V        6.04883000       6.05070000       0.02677000      -0.00003400      -0.00051400       0.00036400
V        7.56973000       7.50220000       1.46741000      -0.00026200      -0.00038400       0.00013600
V        6.07968000       6.04737000       2.96405000      -0.00039600      -0.00006400       0.00063900
V        7.56918000       7.51057000       4.56339000      -0.00036100       0.00009500       0.00055300
V        6.07767000       6.07363000       6.04109000      -0.00008600       0.00020000       0.00063000
V        7.54344000       7.56730000       7.56523000       0.00023700       0.00021700       0.00077600
V        6.04885000       6.09535000       9.05935000       0.00011900       0.00023600       0.00043000
V        7.54885000       7.56543000      10.59251000       0.00018100      -0.00018400      -0.00000400
V        6.04660000       9.04295000      12.09340000      -0.00013200      -0.00023600       0.00006400
V        7.52594000      10.59497000       1.47992000      -0.00040000      -0.00017000      -0.00036900
V        6.07314000       9.05022000       2.96481000      -0.00047400       0.00020100      -0.00002000
V        7.50120000      10.62163000       4.54434000      -0.00030300       0.00016200      -0.00015100
V        6.04788000       9.10233000       6.04974000       0.00001300       0.00041200       0.00029600
V        7.49029000      10.54503000       7.56541000       0.00005900       0.00023600      -0.00001800
V        6.03348000       9.06997000       9.07794000       0.00007900       0.00009000       0.00020800
V        7.54220000      10.55880000      10.60977000       0.00010800      -0.00016900      -0.00048500
V        9.05901000      12.04682000       0.06572000      -0.00049200      -0.00056200      -0.00042200
V       10.63054000       1.43376000       1.60536000      -0.00018700      -0.00031500      -0.00030600
V        9.07041000      12.05421000       3.01101000      -0.00052000      -0.00012900      -0.00042300
V       10.40465000       1.50541000       4.62108000       0.00026700       0.00000500      -0.00017600
V        9.04269000      11.99138000       5.97245000      -0.00005300       0.00019200      -0.00040800
V        9.05523000      11.98641000       9.21603000       0.00012500      -0.00022100      -0.00065700
V        9.06988000       3.00981000       0.06896000      -0.00007500      -0.00078400      -0.00012100
V       10.53125000       4.37056000       1.67978000       0.00011800      -0.00063800       0.00020700
V        9.08137000       2.98615000       3.02646000      -0.00040000      -0.00027300      -0.00001500
V       10.55988000       4.47010000       4.63366000       0.00020700      -0.00023100       0.00041900
V       10.54488000       4.55376000       7.55591000       0.00013800       0.00030100       0.00052600
V        9.07073000       3.16611000       9.21099000       0.00038800      -0.00041700      -0.00007700
V       10.48982000       4.49359000      10.53270000       0.00018300      -0.00037700       0.00012300
V        9.03813000       6.03387000       0.01772000       0.00019800      -0.00060700       0.00040700
V       10.63897000       7.58929000       1.53782000       0.00012400      -0.00067900       0.00031100
V        9.08628000       6.02197000       3.04770000      -0.00027500      -0.00045800       0.00040400
V       10.60050000       7.50025000       4.58191000      -0.00005600       0.00013500       0.00053000
V        9.05578000       6.09047000       6.06631000       0.00003100      -0.00004100       0.00068700
V       10.57395000       7.54993000       7.56700000       0.00009600       0.00041800       0.00024100
V        9.04570000       6.09417000       9.07805000       0.00033500       0.00002800       0.00034500
V       10.54739000       7.63072000      10.57370000       0.00025900      -0.00025600       0.00032300
V        9.05454000       9.02525000       0.02305000      -0.00024700      -0.00036000      -0.00007100
V       10.61219000      10.56778000       1.48870000      -0.00042400      -0.00051700      -0.00046100
V       10.59091000      10.62357000       4.55193000      -0.00027700       0.00014000      -0.00008500
V        9.03420000       9.03763000       6.03613000      -0.00004800       0.00031800       0.00040800
V        9.03395000       9.03479000       9.09790000      -0.00001700      -0.00002800      -0.00001600
V       10.61739000      10.51704000      10.66751000      -0.00039100      -0.00024200      -0.00061100
W        1.52884000      10.55764000       1.50379000      -0.00075300       0.00083700      -0.00069400
W        4.57083000       7.57040000       4.51566000      -0.00047100       0.00046100      -0.00029300
W       10.57803000       1.49646000      10.63957000      -0.00080500       0.00041700      -0.00053500
W       10.54837000      10.58691000       7.58570000      -0.00012600       0.00020800      -0.00012000
Zr       0.03594000       5.93360000      12.09744000       0.00036200      -0.00055300       0.00021000
Zr       7.50576000       1.58464000       7.53459000      -0.00011300      -0.00000600       0.00002800
127
Lattice="12.093483239 -0.001965245 -0.001402732 -0.001967216 12.088895931 0.017572922 -0.001397384 0.01757218 12.092468779" Properties=species:S:1:pos:R:3:forces:R:3 stress="0.003822244015108775 -0.0006827774078077474 0.001528920075476363 -0.0006827774078077474 0.0026467119448307956 -0.0003590615369938121 0.001528920075476363 -0.0003590615369938121 0.004859595314848824" free_energy=-1142.13578673 energy=-1142.12024119 pbc="T T T"
Cr       0.01075000       9.08575000      12.07263000      -0.00069300      -0.00621200      -0.01357800
Cr       4.60322000       4.53773000       1.49317000       0.00595700       0.00628100      -0.00262600
Cr       4.56129000       7.56886000       1.46610000      -0.00277100       0.00036500       0.00173300
Cr       9.05938000       3.15661000       5.96237000       0.00436500       0.02603200       0.00650000
Ti       0.26865000       2.77280000       3.29763000       0.03876900      -0.04691300       0.00249000
Ti       1.47251000       7.53594000       4.44854000      -0.00210400      -0.00063200       0.02153700
Ti       2.97035000       0.05006000       5.92373000      -0.18978200       0.19985300      -0.15825800
Ti       2.95289000       3.05951000       5.89506000      -0.19528500      -0.17539300      -0.15838000
Ti       3.00918000       9.13452000       6.10753000       0.00482200       0.02363800       0.00000300
Ti      10.56170000       1.55914000       7.47375000      -0.02155100       0.00286300      -0.01674700
Ti       9.03173000       9.07916000       3.04875000       0.01526700       0.00389000       0.00480100
V        0.02557000      12.09539000      12.09421000       0.00344300       0.00535300      -0.00895400
V        1.58208000       1.48627000       1.40151000       0.01911900      -0.00740300      -0.03465000
V        0.03629000       0.01953000       3.07617000      -0.00597100      -0.02892200      -0.02932200
V       12.02453000      11.99985000       5.91449000       0.15993600       0.27181200      -0.02678100
V        1.29376000       1.53558000       7.30396000       0.09901100      -0.00672600       1.37112400
V        0.04365000      12.07203000       9.00762000      -0.06796600      -0.03367500       0.01684100
V        1.56017000       1.47648000      10.55013000       0.00258500       0.00610800      -0.12741200
V        0.06136000       2.91903000       0.01436000       0.00191600      -0.01133100      -0.00263000
V        1.66266000       4.39399000       1.58269000       0.00160000       0.00258100      -0.01098200
V        1.51195000       4.77261000       4.52239000      -0.00228500       0.02609100      -0.01056200
V       12.04972000       3.19829000       6.00773000       0.15851000      -0.25056800      -0.03014000
V        1.48260000       4.62674000       7.54393000      -0.01112700      -0.06915800      -0.04014300
V        0.07730000       3.03193000       8.98204000      -0.08440100       0.05565500       0.02199500
V        1.66194000       4.40190000      10.47284000       0.02858200       0.02917200      -0.01287900
V        1.55779000       7.60624000       1.46899000       0.00147600      -0.01258100      -0.01058200
V       12.05865000       5.95165000       2.96722000      -0.00858900      -0.01455800       0.00899500
V       12.03373000       6.08355000       6.11314000      -0.00673900      -0.03432100       0.01879300
V        1.46850000       7.55354000       7.64913000       0.00201100      -0.00203000      -0.02131500
V        0.00579000       6.06406000       9.06395000      -0.00546400       0.01371200      -0.02563700
V        1.58211000       7.64709000      10.58469000      -0.00229400      -0.00179600      -0.01540300
V       12.01254000       9.10486000       2.97337000      -0.00658800       0.00059100       0.00128000
V        1.41637000      10.44293000       4.46728000      -0.02158200      -0.04882000      -0.03640400
V       12.03683000       9.04740000       6.07939000       0.00822600       0.03921800       0.00352000
V        1.42926000      10.56851000       7.59559000       0.01044500       0.08318800      -0.01845400
V       12.08675000       9.05800000       9.09256000      -0.00757600       0.00024400      -0.02302400
V        1.50613000      10.58515000      10.57241000       0.00699500      -0.01296100      -0.01864300
V        3.05410000       0.02307000      12.05324000      -0.00020500      -0.00107000      -0.01024100
V        4.53986000       1.51458000       1.48394000       0.02202700      -0.00109800      -0.03145500
V        2.96147000       0.12097000       3.04819000       0.01612400      -0.01107300      -0.03763800
V        4.71323000       1.56401000       4.43933000       0.07400200       0.01253600      -0.06785200
V        4.52215000       1.56746000       7.57482000      -0.09977200       0.00761400      -0.01747600
V        2.96935000       0.03792000       8.98272000       0.02107000      -0.05973700       0.00134900
V        4.51872000       1.52864000      10.58621000       0.00460500      -0.00344600      -0.01473400
V        3.10201000       3.04024000      12.09573000      -0.00288800      -0.00189800      -0.01695700
V        3.10127000       3.03427000       3.01986000       0.03556300       0.01107600      -0.04236400
V        4.57779000       4.57679000       4.50129000      -0.00576600      -0.00066000       0.01144000
V        4.54406000       4.58305000       7.56127000      -0.03789700      -0.03064900      -0.04953800
V        3.00186000       3.01544000       8.97507000       0.00370100       0.05283900       0.00615200
V        4.55801000       4.56567000      10.57384000       0.00360200       0.01634500      -0.00905400
V        3.16273000       6.02736000       0.01541000      -0.00714800       0.00861600      -0.01257800
V        3.13894000       6.03170000       2.89267000       0.01997300       0.01094600      -0.01335700
V        3.05527000       6.06130000       6.08753000       0.01148000      -0.01028600       0.00060100
V        4.54577000       7.53956000       7.62083000       0.00194800      -0.00581200      -0.00391000
V        3.03198000       6.06267000       9.08720000      -0.00178700       0.00953900      -0.02137000
V        4.56468000       7.57880000      10.56485000       0.00608600       0.00578800      -0.00014500
V        3.08872000       9.05333000      12.07976000       0.00065100      -0.00421200      -0.01095500
V        4.55163000      10.61900000       1.49519000       0.00881600      -0.00461400       0.00135700
V        3.08835000       9.08600000       2.93852000       0.01174900      -0.01439400      -0.01162200
V        4.54136000      10.65561000       4.41500000      -0.01278400       0.01484600      -0.00279200
V        4.55788000      10.64891000       7.66648000      -0.03157500       0.04303700      -0.04624700
V        3.01076000       9.09761000       9.09034000       0.00604800      -0.00015800      -0.02578600
V        4.49980000      10.59345000      10.60456000       0.00568200      -0.01460900      -0.01030100
V        6.04648000       0.00110000       0.00844000       0.00321200       0.00475100      -0.01518900
V        7.56702000       1.51112000       1.49321000       0.00519700       0.00049600      -0.01197900
V        6.04309000       0.03774000       2.96658000       0.02090900      -0.01044300      -0.01082200
V        7.55419000       1.57363000       4.46603000      -0.00106900      -0.00354900       0.00333500
V        5.94007000      12.07158000       5.99952000      -0.03997800      -0.01585400       0.00095400
V        5.95732000      12.04472000       9.19020000      -0.00390600      -0.00839200      -0.02197800
V        7.53362000       1.51090000      10.67953000      -0.01349100      -0.00029000      -0.01875100
V        6.05370000       3.06253000       0.03932000       0.00606100      -0.00420300      -0.01724900
V        7.59919000       4.54402000       1.53487000       0.00898800      -0.00535900       0.00577400
V        6.04302000       3.09724000       2.93421000       0.02766600       0.01554500      -0.00954400
V        7.58936000       4.52385000       4.55525000       0.01266100       0.01443300       0.00973100
V        5.95825000       3.12303000       5.96755000      -0.02163700       0.01902600       0.00367200
V        7.55660000       4.58980000       7.53308000      -0.00665600       0.00268000       0.00117800
V        5.95390000       3.14661000       9.19978000      -0.00347000       0.00807900      -0.02145200
V        7.54721000       4.58528000      10.60915000      -0.00746300       0.00721900       0.00704700
V        6.05273000       6.05530000       0.04154000       0.00128100       0.00063700       0.00569200
V        7.55977000       7.51247000       1.48619000       0.00606300      -0.00108000       0.01080000
V        6.07008000       6.05082000       2.98579000       0.00589200      -0.00159600       0.00403500
V        7.55235000       7.51978000       4.58906000       0.00998800       0.00070000      -0.00859300
V        6.06260000       6.06553000       6.05408000       0.00097700      -0.00227100       0.00042500
V        7.53539000       7.56227000       7.55867000      -0.00887600       0.00030000       0.01048300
V        6.05577000       6.08860000       9.06690000      -0.00301900       0.00440800       0.00412900
V        7.54663000       7.56452000      10.59676000      -0.00011400       0.00064900       0.00216200
V        6.04349000       9.02541000       0.02647000       0.00638300      -0.00044000       0.00221400
V        7.51102000      10.59954000       1.49432000       0.00729600       0.00901900       0.00204200
V        6.06121000       9.06280000       2.99063000       0.00556100       0.00435600       0.00940200
V        7.48828000      10.64262000       4.55531000       0.00590300      -0.01673700       0.01101400
V        6.03589000       9.10193000       6.06885000      -0.00917800       0.00278500       0.00108400
V        7.48580000      10.55705000       7.58322000      -0.00550900      -0.00562000      -0.00504600
V        6.03568000       9.06349000       9.09356000       0.00093000      -0.00287200      -0.00258000
V        7.54571000      10.55470000      10.62980000      -0.00008100      -0.00494000       0.00205500
V        9.07213000      12.05126000       0.05865000      -0.00419200       0.00226300      -0.00901000
V       10.64069000       1.44934000       1.55841000       0.00030500       0.00020600      -0.01465000
V        9.06571000      12.08216000       2.98946000       0.00436400      -0.01306200      -0.00530100
V       10.40567000       1.52002000       4.59406000      -0.07230400      -0.01019100      -0.06391500
V        9.01243000      12.01332000       5.95421000      -0.00200900      -0.04099200      -0.00087800
V        9.08144000      11.99073000       9.22987000      -0.01646600      -0.01312800      -0.01358000
V        9.09175000       3.01740000       0.05238000      -0.00337600       0.00404600      -0.00024700
V       10.52972000       4.37598000       1.63102000       0.00501800       0.00126000       0.01909700
V        9.07964000       2.99665000       2.99975000       0.00248800      -0.00194200      -0.00016000
V       10.53391000       4.51452000       4.58270000       0.05616500      -0.05646600       0.05505100
V       10.53437000       4.57562000       7.54635000       0.01782900      -0.00835900      -0.04828300
V        9.11378000       3.15586000       9.20675000      -0.02777300       0.01335400      -0.01103000
V       10.52150000       4.47139000      10.49832000      -0.02378800       0.00873100      -0.00910400
V        9.03511000       6.04029000       0.01198000       0.00201500       0.00187100       0.00541900
V       10.61546000       7.60379000       1.50752000       0.00701500      -0.01051800       0.01068600
V        9.06930000       6.03901000       3.04362000       0.01869200      -0.00324500       0.00671900
V       10.58530000       7.50926000       4.56201000       0.00439000      -0.00094300       0.00308700
V        9.04543000       6.09098000       6.06181000       0.01116700       0.00396200       0.00001100
V       10.56686000       7.54126000       7.57235000       0.00394600       0.00644800      -0.01203800
V        9.05136000       6.08437000       9.06633000      -0.00450600       0.00380000       0.01063000
V       10.54447000       7.62937000      10.55990000      -0.00328500       0.00448900       0.00605300
V        9.04750000       9.03096000       0.02654000       0.00190700      -0.00516700       0.00511400
V       10.60738000      10.58638000       1.46782000      -0.00396700      -0.00721800      -0.00444900
V       10.57060000      10.61621000       4.53292000       0.03961800       0.03711100       0.02472800
V        9.01698000       9.04050000       6.03668000       0.01786700       0.00834200      -0.00005700
V        9.03238000       9.03510000       9.09440000       0.00095300       0.00296700       0.00197300
V       10.62660000      10.52093000      10.64828000      -0.00507400      -0.00644300      -0.01076000
W        1.52434000      10.57854000       1.48243000       0.00414900      -0.01576400      -0.02668800
W        4.55691000       7.57148000       4.51696000       0.00575200      -0.00010300       0.00189000
W       10.61743000       1.48905000      10.57636000      -0.03277500       0.00355700       0.01611200
W       10.52173000      10.55588000       7.57794000       0.02543100       0.02861300      -0.04532000
Zr       0.03257000       5.93064000      12.06507000       0.00472200      -0.01186400      -0.01380200
Zr       7.53671000       1.58602000       7.59123000      -0.02837400       0.00083500      -0.02197600
127
Lattice="12.093483239 -0.001965245 -0.001402732 -0.001967216 12.088895931 0.017572922 -0.001397384 0.01757218 12.092468779" Properties=species:S:1:pos:R:3:forces:R:3 stress="0.0022589519488761724 -0.0005490593162948244 0.0013575282348796086 -0.0005490593162948244 0.0005682082662930342 -0.0002268663737076047 0.0013575282348796086 -0.0002268663737076047 0.004805887128820599" free_energy=-1140.88710147 energy=-1140.8746069 pbc="T T T"
Cr       0.01186000       9.08823000      12.07989000      -0.00002000       0.00133500      -0.01050300
Cr       4.60035000       4.53400000       1.49509000      -0.00059100       0.00193900      -0.00435300
Cr       4.56306000       7.56880000       1.46647000       0.00055000       0.00064500       0.00471500
Cr       9.05656000       3.14247000       5.96036000      -0.02696800       0.01089100       0.01399400
Ti       0.24749000       2.79775000       3.29204000       0.07912700      -0.07031100       0.03752500
Ti       1.47248000       7.53761000       4.43984000       0.00092300      -0.00362400       0.00534300
Ti       3.06438000      12.03952000       6.01969000      -0.01401300       0.03196500      -0.12195200
Ti       3.04953000       3.14657000       5.97355000      -0.00920600      -0.02025800      -0.11283600
Ti       3.00469000       9.12363000       6.10907000      -0.01687400       0.00524600       0.01280300
Ti      10.57281000       1.55624000       7.47852000      -0.00441500       0.00805400       0.01556000
Ti       9.02585000       9.07736000       3.04696000       0.00997100      -0.00182800       0.00610000
V        0.02356000      12.09270000      12.10051000       0.00568000       0.00497100      -0.02299800
V        1.57132000       1.48987000       1.41944000       0.00475100       0.00202200      -0.02423300
V        0.03893000       0.03614000       3.08869000       0.00167300      -0.03681000      -0.06532100
V       11.94040000      11.85499000       5.92237000      -0.00104700       0.11448400      -0.11811300
V        1.23200000       1.53900000       6.63733000       0.07729900       0.00690400       1.18248500
V        0.07894000      12.08804000       8.99789000      -0.06058400      -0.02958700      -0.02213400
V        1.55998000       1.47275000      10.61275000      -0.00754800       0.00393300      -0.08457500
V        0.05988000       2.92480000       0.01662000       0.00663700      -0.00885200      -0.01512600